
     Program PHONON v.6.1 (svn rev. 13369) starts on  9Nov2017 at 13: 2:32 

     This program is part of the open-source Quantum ESPRESSO suite
     for quantum simulation of materials; please cite
         "P. Giannozzi et al., J. Phys.:Condens. Matter 21 395502 (2009);
          URL http://www.quantum-espresso.org", 
     in publications or presentations arising from this work. More details at
     http://www.quantum-espresso.org/quote

     Parallel version (MPI), running on     4 processors
     R & G space division:  proc/nbgrp/npool/nimage =       4

     Reading data from directory:
     ./silicon.10.354.save

   Info: using nr1, nr2, nr3 values from input

   Info: using nr1, nr2, nr3 values from input

     IMPORTANT: XC functional enforced from input :
     Exchange-correlation      = SLA  PW   PBE  PBE ( 1  4  3  4 0 0)
     Any further DFT definition will be discarded
     Please, verify this is what you really want


     Parallelization info
     --------------------
     sticks:   dense  smooth     PW     G-vecs:    dense   smooth      PW
     Min          64      64     22                  709      709     140
     Max          67      67     23                  710      710     141
     Sum         265     265     91                 2837     2837     561


     Check: negative/imaginary core charge=   -0.000006    0.000000


     Dynamical matrices for ( 4, 4, 4)  uniform grid of q-points
     (   8q-points):
       N         xq(1)         xq(2)         xq(3) 
       1   0.000000000   0.000000000   0.000000000
       2  -0.250000000   0.250000000  -0.250000000
       3   0.500000000  -0.500000000   0.500000000
       4   0.000000000   0.500000000   0.000000000
       5   0.750000000  -0.250000000   0.750000000
       6   0.500000000   0.000000000   0.500000000
       7   0.000000000  -1.000000000   0.000000000
       8  -0.500000000  -1.000000000   0.000000000

     Calculation of q =    0.0000000   0.0000000   0.0000000

                                                                                

     bravais-lattice index     =            2
     lattice parameter (alat)  =      10.3540  a.u.
     unit-cell volume          =     277.5010 (a.u.)^3
     number of atoms/cell      =            2
     number of atomic types    =            1
     kinetic-energy cut-off    =      18.0000  Ry
     charge density cut-off    =      72.0000  Ry
     convergence threshold     =      1.0E-12
     beta                      =       0.7000
     number of iterations used =            4
     Exchange-correlation      = SLA  PW   PBE  PBE ( 1  4  3  4 0 0)


     celldm(1)=   10.35400  celldm(2)=    0.00000  celldm(3)=    0.00000
     celldm(4)=    0.00000  celldm(5)=    0.00000  celldm(6)=    0.00000

     crystal axes: (cart. coord. in units of alat)
               a(1) = ( -0.5000  0.0000  0.5000 )  
               a(2) = (  0.0000  0.5000  0.5000 )  
               a(3) = ( -0.5000  0.5000  0.0000 )  

     reciprocal axes: (cart. coord. in units 2 pi/alat)
               b(1) = ( -1.0000 -1.0000  1.0000 )  
               b(2) = (  1.0000  1.0000  1.0000 )  
               b(3) = ( -1.0000  1.0000 -1.0000 )  


     Atoms inside the unit cell: 

     Cartesian axes

     site n.  atom      mass           positions (alat units)
        1     Si  28.0860   tau(    1) = (    0.00000    0.00000    0.00000  )
        2     Si  28.0860   tau(    2) = (    0.25000    0.25000    0.25000  )

     Computing dynamical matrix for 
                    q = (   0.0000000   0.0000000   0.0000000 )

     49 Sym.Ops. (with q -> -q+G )


     G cutoff =  195.5191  (    710 G-vectors)     FFT grid: ( 20, 20, 20)
     number of k points=    10

     PseudoPot. # 1 for Si read from file:
     /home/max/quantum_espresso/qe-6.1/pseudo/si_pbe_v1.uspp.F.UPF.txt
     MD5 check sum: a056efeee980c13900f22a371efd63c1
     Pseudo is Ultrasoft + core correction, Zval =  4.0
     Generated by new atomic code, or converted to UPF format
     Using radial grid of  899 points,  6 beta functions with: 
                l(1) =   0
                l(2) =   0
                l(3) =   1
                l(4) =   1
                l(5) =   2
                l(6) =   2
     Q(r) pseudized with  8 coefficients,  rinner =    0.900   0.900   0.900
                                                       0.900   0.900

     Mode symmetry, O_h (m-3m)  point group:


     Electric field:
     Dielectric constant
     Born effective charges in two ways 


     Atomic displacements:
     There are   2 irreducible representations

     Representation     1      3 modes -T_2g G_25' G_5+  To be done

     Representation     2      3 modes -T_1u G_15  G_4-  To be done



     Alpha used in Ewald sum =   0.7000
     PHONON       :     0.42s CPU         0.44s WALL


     Electric Fields Calculation

      iter #   1 total cpu time :     0.9 secs   av.it.:   5.6
      thresh= 1.000E-02 alpha_mix =  0.700 |ddv_scf|^2 =  9.391E-07

      iter #   2 total cpu time :     1.1 secs   av.it.:   9.9
      thresh= 9.691E-05 alpha_mix =  0.700 |ddv_scf|^2 =  6.007E-08

      iter #   3 total cpu time :     1.5 secs   av.it.:   9.8
      thresh= 2.451E-05 alpha_mix =  0.700 |ddv_scf|^2 =  4.733E-09

      iter #   4 total cpu time :     1.7 secs   av.it.:   9.0
      thresh= 6.880E-06 alpha_mix =  0.700 |ddv_scf|^2 =  2.844E-11

      iter #   5 total cpu time :     1.8 secs   av.it.:   9.1
      thresh= 5.333E-07 alpha_mix =  0.700 |ddv_scf|^2 =  1.471E-14

     End of electric fields calculation

          Dielectric constant in cartesian axis 

          (      13.914161747       0.000000000       0.000000000 )
          (       0.000000000      13.914161747      -0.000000000 )
          (       0.000000000      -0.000000000      13.914161747 )

          Effective charges (d Force / dE) in cartesian axis

           atom      1   Si 
      Ex  (       -0.03534       -0.00000        0.00000 )
      Ey  (       -0.00000       -0.03534        0.00000 )
      Ez  (        0.00000        0.00000       -0.03534 )
           atom      2   Si 
      Ex  (       -0.03534        0.00000        0.00000 )
      Ey  (        0.00000       -0.03534       -0.00000 )
      Ez  (        0.00000       -0.00000       -0.03534 )


     Representation #  1 modes #   1  2  3

     Self-consistent Calculation

      iter #   1 total cpu time :     2.3 secs   av.it.:   5.0
      thresh= 1.000E-02 alpha_mix =  0.700 |ddv_scf|^2 =  2.243E-07

      iter #   2 total cpu time :     2.5 secs   av.it.:   9.8
      thresh= 4.736E-05 alpha_mix =  0.700 |ddv_scf|^2 =  1.392E-08

      iter #   3 total cpu time :     2.7 secs   av.it.:   9.2
      thresh= 1.180E-05 alpha_mix =  0.700 |ddv_scf|^2 =  8.626E-10

      iter #   4 total cpu time :     2.9 secs   av.it.:   8.9
      thresh= 2.937E-06 alpha_mix =  0.700 |ddv_scf|^2 =  1.912E-12

      iter #   5 total cpu time :     3.1 secs   av.it.:   9.5
      thresh= 1.383E-07 alpha_mix =  0.700 |ddv_scf|^2 =  1.351E-14

     End of self-consistent calculation

     Convergence has been achieved 


     Representation #  2 modes #   4  5  6

     Self-consistent Calculation

      iter #   1 total cpu time :     3.5 secs   av.it.:   5.0
      thresh= 1.000E-02 alpha_mix =  0.700 |ddv_scf|^2 =  1.860E-07

      iter #   2 total cpu time :     3.8 secs   av.it.:   9.6
      thresh= 4.313E-05 alpha_mix =  0.700 |ddv_scf|^2 =  1.513E-08

      iter #   3 total cpu time :     4.0 secs   av.it.:   9.3
      thresh= 1.230E-05 alpha_mix =  0.700 |ddv_scf|^2 =  9.184E-10

      iter #   4 total cpu time :     4.2 secs   av.it.:   9.5
      thresh= 3.030E-06 alpha_mix =  0.700 |ddv_scf|^2 =  5.361E-12

      iter #   5 total cpu time :     4.4 secs   av.it.:   9.0
      thresh= 2.315E-07 alpha_mix =  0.700 |ddv_scf|^2 =  4.719E-15

     End of self-consistent calculation

     Convergence has been achieved 

     Number of q in the star =    1
     List of q in the star:
          1   0.000000000   0.000000000   0.000000000

          Dielectric constant in cartesian axis 

          (      13.914161747       0.000000000       0.000000000 )
          (       0.000000000      13.914161747      -0.000000000 )
          (       0.000000000      -0.000000000      13.914161747 )

          Effective charges (d Force / dE) in cartesian axis

           atom      1   Si 
      Ex  (       -0.03534       -0.00000        0.00000 )
      Ey  (       -0.00000       -0.03534        0.00000 )
      Ez  (        0.00000        0.00000       -0.03534 )
           atom      2   Si 
      Ex  (       -0.03534        0.00000        0.00000 )
      Ey  (        0.00000       -0.03534       -0.00000 )
      Ez  (        0.00000       -0.00000       -0.03534 )

          Effective charges (d P / du) in cartesian axis 

           atom      1   Si 
      Px  (       -0.07537        0.00000       -0.00000 )
      Py  (        0.00000       -0.07537        0.00000 )
      Pz  (        0.00000        0.00000       -0.07537 )
           atom      2   Si 
      Px  (       -0.07537        0.00000       -0.00000 )
      Py  (       -0.00000       -0.07537        0.00000 )
      Pz  (       -0.00000        0.00000       -0.07537 )

     Diagonalizing the dynamical matrix

     q = (    0.000000000   0.000000000   0.000000000 ) 

 **************************************************************************
     freq (    1) =       1.886311 [THz] =      62.920567 [cm-1]
     freq (    2) =       1.886311 [THz] =      62.920567 [cm-1]
     freq (    3) =       1.886311 [THz] =      62.920567 [cm-1]
     freq (    4) =      15.302352 [THz] =     510.431524 [cm-1]
     freq (    5) =      15.302352 [THz] =     510.431524 [cm-1]
     freq (    6) =      15.302352 [THz] =     510.431524 [cm-1]
 **************************************************************************

     Mode symmetry, O_h (m-3m)  point group:

     freq (  1 -  3) =         62.9  [cm-1]   --> T_1u G_15  G_4- I  
     freq (  4 -  6) =        510.4  [cm-1]   --> T_2g G_25' G_5+ R  

     Calculation of q =   -0.2500000   0.2500000  -0.2500000

   Info: using nr1, nr2, nr3 values from input

   Info: using nr1, nr2, nr3 values from input

     Parallelization info
     --------------------
     sticks:   dense  smooth     PW     G-vecs:    dense   smooth      PW
     Min          64      64     24                  709      709     161
     Max          67      67     25                  710      710     162
     Sum         265     265     97                 2837     2837     645



     bravais-lattice index     =            2
     lattice parameter (alat)  =      10.3540  a.u.
     unit-cell volume          =     277.5010 (a.u.)^3
     number of atoms/cell      =            2
     number of atomic types    =            1
     number of electrons       =         8.00
     number of Kohn-Sham states=            4
     kinetic-energy cutoff     =      18.0000  Ry
     charge density cutoff     =      72.0000  Ry
     Exchange-correlation      = SLA  PW   PBE  PBE ( 1  4  3  4 0 0)

     celldm(1)=  10.354000  celldm(2)=   0.000000  celldm(3)=   0.000000
     celldm(4)=   0.000000  celldm(5)=   0.000000  celldm(6)=   0.000000

     crystal axes: (cart. coord. in units of alat)
               a(1) = (  -0.500000   0.000000   0.500000 )  
               a(2) = (   0.000000   0.500000   0.500000 )  
               a(3) = (  -0.500000   0.500000   0.000000 )  

     reciprocal axes: (cart. coord. in units 2 pi/alat)
               b(1) = ( -1.000000 -1.000000  1.000000 )  
               b(2) = (  1.000000  1.000000  1.000000 )  
               b(3) = ( -1.000000  1.000000 -1.000000 )  


     PseudoPot. # 1 for Si read from file:
     /home/max/quantum_espresso/qe-6.1/pseudo/si_pbe_v1.uspp.F.UPF.txt
     MD5 check sum: a056efeee980c13900f22a371efd63c1
     Pseudo is Ultrasoft + core correction, Zval =  4.0
     Generated by new atomic code, or converted to UPF format
     Using radial grid of  899 points,  6 beta functions with: 
                l(1) =   0
                l(2) =   0
                l(3) =   1
                l(4) =   1
                l(5) =   2
                l(6) =   2
     Q(r) pseudized with  8 coefficients,  rinner =    0.900   0.900   0.900
                                                       0.900   0.900

     atomic species   valence    mass     pseudopotential
        Si             4.00    28.08600     Si( 1.00)

     48 Sym. Ops., with inversion, found



   Cartesian axes

     site n.     atom                  positions (alat units)
         1           Si  tau(   1) = (   0.0000000   0.0000000   0.0000000  )
         2           Si  tau(   2) = (   0.2500000   0.2500000   0.2500000  )

     number of k points=   120

     Number of k-points >= 100: set verbosity='high' to print them.

     Dense  grid:     2837 G-vectors     FFT dimensions: (  20,  20,  20)

     Estimated max dynamical RAM per process >       0.33MB

     Estimated total allocated dynamical RAM >       1.32MB

     Check: negative/imaginary core charge=   -0.000006    0.000000

     The potential is recalculated from file :
     ./_ph0/silicon.10.354.save/charge-density.dat

     Starting wfc are    8 atomic wfcs

     Band Structure Calculation
     Davidson diagonalization with overlap

     ethr =  1.25E-10,  avg # of iterations = 11.7

     total cpu time spent up to now is        1.0 secs

     End of band structure calculation

     Number of k-points >= 100: set verbosity='high' to print the bands.

     highest occupied level (ev):     5.6411

     Writing output data file silicon.10.354.save

                                                                                

     bravais-lattice index     =            2
     lattice parameter (alat)  =      10.3540  a.u.
     unit-cell volume          =     277.5010 (a.u.)^3
     number of atoms/cell      =            2
     number of atomic types    =            1
     kinetic-energy cut-off    =      18.0000  Ry
     charge density cut-off    =      72.0000  Ry
     convergence threshold     =      1.0E-12
     beta                      =       0.7000
     number of iterations used =            4
     Exchange-correlation      = SLA  PW   PBE  PBE ( 1  4  3  4 0 0)


     celldm(1)=   10.35400  celldm(2)=    0.00000  celldm(3)=    0.00000
     celldm(4)=    0.00000  celldm(5)=    0.00000  celldm(6)=    0.00000

     crystal axes: (cart. coord. in units of alat)
               a(1) = ( -0.5000  0.0000  0.5000 )  
               a(2) = (  0.0000  0.5000  0.5000 )  
               a(3) = ( -0.5000  0.5000  0.0000 )  

     reciprocal axes: (cart. coord. in units 2 pi/alat)
               b(1) = ( -1.0000 -1.0000  1.0000 )  
               b(2) = (  1.0000  1.0000  1.0000 )  
               b(3) = ( -1.0000  1.0000 -1.0000 )  


     Atoms inside the unit cell: 

     Cartesian axes

     site n.  atom      mass           positions (alat units)
        1     Si  28.0860   tau(    1) = (    0.00000    0.00000    0.00000  )
        2     Si  28.0860   tau(    2) = (    0.25000    0.25000    0.25000  )

     Computing dynamical matrix for 
                    q = (  -0.2500000   0.2500000  -0.2500000 )

      6 Sym.Ops. (no q -> -q+G )


     G cutoff =  195.5191  (    710 G-vectors)     FFT grid: ( 20, 20, 20)
     number of k points=   120

     PseudoPot. # 1 for Si read from file:
     /home/max/quantum_espresso/qe-6.1/pseudo/si_pbe_v1.uspp.F.UPF.txt
     MD5 check sum: a056efeee980c13900f22a371efd63c1
     Pseudo is Ultrasoft + core correction, Zval =  4.0
     Generated by new atomic code, or converted to UPF format
     Using radial grid of  899 points,  6 beta functions with: 
                l(1) =   0
                l(2) =   0
                l(3) =   1
                l(4) =   1
                l(5) =   2
                l(6) =   2
     Q(r) pseudized with  8 coefficients,  rinner =    0.900   0.900   0.900
                                                       0.900   0.900

     Mode symmetry, C_3v (3m)   point group:


     Atomic displacements:
     There are   4 irreducible representations

     Representation     1      1 modes -A_1  L_1  To be done

     Representation     2      1 modes -A_1  L_1  To be done

     Representation     3      2 modes -E    L_3  To be done

     Representation     4      2 modes -E    L_3  To be done



     Alpha used in Ewald sum =   0.7000
     PHONON       :     5.40s CPU         5.94s WALL



     Representation #  1 mode #   1

     Self-consistent Calculation

      iter #   1 total cpu time :     6.2 secs   av.it.:   5.5
      thresh= 1.000E-02 alpha_mix =  0.700 |ddv_scf|^2 =  2.458E-03

      iter #   2 total cpu time :     6.5 secs   av.it.:   7.5
      thresh= 4.958E-03 alpha_mix =  0.700 |ddv_scf|^2 =  3.717E-02

      iter #   3 total cpu time :     6.7 secs   av.it.:   6.3
      thresh= 1.000E-02 alpha_mix =  0.700 |ddv_scf|^2 =  1.712E-06

      iter #   4 total cpu time :     7.0 secs   av.it.:   8.2
      thresh= 1.309E-04 alpha_mix =  0.700 |ddv_scf|^2 =  1.164E-07

      iter #   5 total cpu time :     7.5 secs   av.it.:   8.1
      thresh= 3.412E-05 alpha_mix =  0.700 |ddv_scf|^2 =  4.725E-09

      iter #   6 total cpu time :     7.8 secs   av.it.:   8.0
      thresh= 6.874E-06 alpha_mix =  0.700 |ddv_scf|^2 =  3.506E-09

      iter #   7 total cpu time :     8.1 secs   av.it.:   6.3
      thresh= 5.921E-06 alpha_mix =  0.700 |ddv_scf|^2 =  5.832E-10

      iter #   8 total cpu time :     8.3 secs   av.it.:   7.2
      thresh= 2.415E-06 alpha_mix =  0.700 |ddv_scf|^2 =  4.217E-12

      iter #   9 total cpu time :     8.6 secs   av.it.:   7.2
      thresh= 2.054E-07 alpha_mix =  0.700 |ddv_scf|^2 =  1.754E-13

     End of self-consistent calculation

     Convergence has been achieved 


     Representation #  2 mode #   2

     Self-consistent Calculation

      iter #   1 total cpu time :     8.9 secs   av.it.:   5.5
      thresh= 1.000E-02 alpha_mix =  0.700 |ddv_scf|^2 =  2.458E-03

      iter #   2 total cpu time :     9.2 secs   av.it.:   7.5
      thresh= 4.958E-03 alpha_mix =  0.700 |ddv_scf|^2 =  3.717E-02

      iter #   3 total cpu time :     9.6 secs   av.it.:   6.3
      thresh= 1.000E-02 alpha_mix =  0.700 |ddv_scf|^2 =  1.712E-06

      iter #   4 total cpu time :     9.9 secs   av.it.:   8.2
      thresh= 1.309E-04 alpha_mix =  0.700 |ddv_scf|^2 =  1.164E-07

      iter #   5 total cpu time :    10.2 secs   av.it.:   8.1
      thresh= 3.412E-05 alpha_mix =  0.700 |ddv_scf|^2 =  4.725E-09

      iter #   6 total cpu time :    10.5 secs   av.it.:   8.0
      thresh= 6.874E-06 alpha_mix =  0.700 |ddv_scf|^2 =  3.506E-09

      iter #   7 total cpu time :    10.7 secs   av.it.:   6.3
      thresh= 5.921E-06 alpha_mix =  0.700 |ddv_scf|^2 =  5.832E-10

      iter #   8 total cpu time :    11.0 secs   av.it.:   7.2
      thresh= 2.415E-06 alpha_mix =  0.700 |ddv_scf|^2 =  4.217E-12

      iter #   9 total cpu time :    11.4 secs   av.it.:   7.2
      thresh= 2.054E-07 alpha_mix =  0.700 |ddv_scf|^2 =  1.754E-13

     End of self-consistent calculation

     Convergence has been achieved 


     Representation #  3 modes #   3  4

     Self-consistent Calculation

      iter #   1 total cpu time :    11.9 secs   av.it.:   5.0
      thresh= 1.000E-02 alpha_mix =  0.700 |ddv_scf|^2 =  5.730E-07

      iter #   2 total cpu time :    12.6 secs   av.it.:   9.5
      thresh= 7.570E-05 alpha_mix =  0.700 |ddv_scf|^2 =  4.316E-08

      iter #   3 total cpu time :    13.4 secs   av.it.:   9.2
      thresh= 2.078E-05 alpha_mix =  0.700 |ddv_scf|^2 =  3.741E-09

      iter #   4 total cpu time :    14.1 secs   av.it.:   9.0
      thresh= 6.116E-06 alpha_mix =  0.700 |ddv_scf|^2 =  1.123E-11

      iter #   5 total cpu time :    14.7 secs   av.it.:   9.2
      thresh= 3.351E-07 alpha_mix =  0.700 |ddv_scf|^2 =  4.998E-13

     End of self-consistent calculation

     Convergence has been achieved 


     Representation #  4 modes #   5  6

     Self-consistent Calculation

      iter #   1 total cpu time :    15.2 secs   av.it.:   5.0
      thresh= 1.000E-02 alpha_mix =  0.700 |ddv_scf|^2 =  5.728E-07

      iter #   2 total cpu time :    16.0 secs   av.it.:   9.6
      thresh= 7.568E-05 alpha_mix =  0.700 |ddv_scf|^2 =  4.312E-08

      iter #   3 total cpu time :    16.7 secs   av.it.:   9.4
      thresh= 2.076E-05 alpha_mix =  0.700 |ddv_scf|^2 =  3.737E-09

      iter #   4 total cpu time :    17.5 secs   av.it.:   9.1
      thresh= 6.113E-06 alpha_mix =  0.700 |ddv_scf|^2 =  1.123E-11

      iter #   5 total cpu time :    18.2 secs   av.it.:   9.3
      thresh= 3.351E-07 alpha_mix =  0.700 |ddv_scf|^2 =  5.001E-13

     End of self-consistent calculation

     Convergence has been achieved 

     Number of q in the star =    8
     List of q in the star:
          1  -0.250000000   0.250000000  -0.250000000
          2   0.250000000  -0.250000000  -0.250000000
          3   0.250000000  -0.250000000   0.250000000
          4   0.250000000   0.250000000   0.250000000
          5  -0.250000000  -0.250000000  -0.250000000
          6  -0.250000000  -0.250000000   0.250000000
          7  -0.250000000   0.250000000   0.250000000
          8   0.250000000   0.250000000  -0.250000000

     Diagonalizing the dynamical matrix

     q = (   -0.250000000   0.250000000  -0.250000000 ) 

 **************************************************************************
     freq (    1) =       3.399168 [THz] =     113.384047 [cm-1]
     freq (    2) =       3.399168 [THz] =     113.384047 [cm-1]
     freq (    3) =       6.899412 [THz] =     230.139601 [cm-1]
     freq (    4) =      14.382960 [THz] =     479.763892 [cm-1]
     freq (    5) =      14.686058 [THz] =     489.874152 [cm-1]
     freq (    6) =      14.686058 [THz] =     489.874152 [cm-1]
 **************************************************************************

     Mode symmetry, C_3v (3m)   point group:

     freq (  1 -  2) =        113.4  [cm-1]   --> E    L_3           
     freq (  3 -  3) =        230.1  [cm-1]   --> A_1  L_1           
     freq (  4 -  4) =        479.8  [cm-1]   --> A_1  L_1           
     freq (  5 -  6) =        489.9  [cm-1]   --> E    L_3           

     Calculation of q =    0.5000000  -0.5000000   0.5000000

   Info: using nr1, nr2, nr3 values from input

   Info: using nr1, nr2, nr3 values from input

     Parallelization info
     --------------------
     sticks:   dense  smooth     PW     G-vecs:    dense   smooth      PW
     Min          64      64     27                  709      709     186
     Max          67      67     28                  710      710     189
     Sum         265     265    109                 2837     2837     749



     bravais-lattice index     =            2
     lattice parameter (alat)  =      10.3540  a.u.
     unit-cell volume          =     277.5010 (a.u.)^3
     number of atoms/cell      =            2
     number of atomic types    =            1
     number of electrons       =         8.00
     number of Kohn-Sham states=            4
     kinetic-energy cutoff     =      18.0000  Ry
     charge density cutoff     =      72.0000  Ry
     Exchange-correlation      = SLA  PW   PBE  PBE ( 1  4  3  4 0 0)

     celldm(1)=  10.354000  celldm(2)=   0.000000  celldm(3)=   0.000000
     celldm(4)=   0.000000  celldm(5)=   0.000000  celldm(6)=   0.000000

     crystal axes: (cart. coord. in units of alat)
               a(1) = (  -0.500000   0.000000   0.500000 )  
               a(2) = (   0.000000   0.500000   0.500000 )  
               a(3) = (  -0.500000   0.500000   0.000000 )  

     reciprocal axes: (cart. coord. in units 2 pi/alat)
               b(1) = ( -1.000000 -1.000000  1.000000 )  
               b(2) = (  1.000000  1.000000  1.000000 )  
               b(3) = ( -1.000000  1.000000 -1.000000 )  


     PseudoPot. # 1 for Si read from file:
     /home/max/quantum_espresso/qe-6.1/pseudo/si_pbe_v1.uspp.F.UPF.txt
     MD5 check sum: a056efeee980c13900f22a371efd63c1
     Pseudo is Ultrasoft + core correction, Zval =  4.0
     Generated by new atomic code, or converted to UPF format
     Using radial grid of  899 points,  6 beta functions with: 
                l(1) =   0
                l(2) =   0
                l(3) =   1
                l(4) =   1
                l(5) =   2
                l(6) =   2
     Q(r) pseudized with  8 coefficients,  rinner =    0.900   0.900   0.900
                                                       0.900   0.900

     atomic species   valence    mass     pseudopotential
        Si             4.00    28.08600     Si( 1.00)

     48 Sym. Ops., with inversion, found



   Cartesian axes

     site n.     atom                  positions (alat units)
         1           Si  tau(   1) = (   0.0000000   0.0000000   0.0000000  )
         2           Si  tau(   2) = (   0.2500000   0.2500000   0.2500000  )

     number of k points=    60
                       cart. coord. in units 2pi/alat
        k(    1) = (  -0.1250000   0.1250000   0.1250000), wk =   0.0468750
        k(    2) = (   0.3750000  -0.3750000   0.6250000), wk =   0.0000000
        k(    3) = (  -0.3750000   0.3750000  -0.1250000), wk =   0.0468750
        k(    4) = (   0.1250000  -0.1250000   0.3750000), wk =   0.0000000
        k(    5) = (   0.3750000  -0.3750000   0.6250000), wk =   0.0468750
        k(    6) = (   0.8750000  -0.8750000   1.1250000), wk =   0.0000000
        k(    7) = (   0.1250000  -0.1250000   0.3750000), wk =   0.0468750
        k(    8) = (   0.6250000  -0.6250000   0.8750000), wk =   0.0000000
        k(    9) = (  -0.1250000   0.6250000   0.1250000), wk =   0.0937500
        k(   10) = (   0.3750000   0.1250000   0.6250000), wk =   0.0000000
        k(   11) = (   0.6250000  -0.1250000   0.8750000), wk =   0.0937500
        k(   12) = (   1.1250000  -0.6250000   1.3750000), wk =   0.0000000
        k(   13) = (   0.3750000   0.1250000   0.6250000), wk =   0.0937500
        k(   14) = (   0.8750000  -0.3750000   1.1250000), wk =   0.0000000
        k(   15) = (  -0.1250000  -0.8750000   0.1250000), wk =   0.0937500
        k(   16) = (   0.3750000  -1.3750000   0.6250000), wk =   0.0000000
        k(   17) = (  -0.3750000   0.3750000   0.3750000), wk =   0.0468750
        k(   18) = (   0.1250000  -0.1250000   0.8750000), wk =   0.0000000
        k(   19) = (   0.3750000  -0.3750000   1.1250000), wk =   0.0468750
        k(   20) = (   0.8750000  -0.8750000   1.6250000), wk =   0.0000000
        k(   21) = (   0.1250000  -0.1250000   0.1250000), wk =   0.0156250
        k(   22) = (   0.6250000  -0.6250000   0.6250000), wk =   0.0000000
        k(   23) = (  -0.3750000  -0.3750000  -0.1250000), wk =   0.0937500
        k(   24) = (   0.1250000  -0.8750000   0.3750000), wk =   0.0000000
        k(   25) = (  -0.1250000  -0.3750000   0.3750000), wk =   0.0468750
        k(   26) = (   0.3750000  -0.8750000   0.8750000), wk =   0.0000000
        k(   27) = (   0.3750000   0.3750000   0.6250000), wk =   0.0937500
        k(   28) = (   0.8750000  -0.1250000   1.1250000), wk =   0.0000000
        k(   29) = (   0.6250000   0.3750000  -0.3750000), wk =   0.0468750
        k(   30) = (   1.1250000  -0.1250000   0.1250000), wk =   0.0000000
        k(   31) = (   0.1250000   0.1250000   0.3750000), wk =   0.0937500
        k(   32) = (   0.6250000  -0.3750000   0.8750000), wk =   0.0000000
        k(   33) = (   0.3750000   0.1250000  -0.1250000), wk =   0.0468750
        k(   34) = (   0.8750000  -0.3750000   0.3750000), wk =   0.0000000
        k(   35) = (  -0.1250000  -0.6250000  -0.1250000), wk =   0.0468750
        k(   36) = (   0.3750000  -1.1250000   0.3750000), wk =   0.0000000
        k(   37) = (   0.1250000  -0.6250000   0.1250000), wk =   0.0468750
        k(   38) = (   0.6250000  -1.1250000   0.6250000), wk =   0.0000000
        k(   39) = (   0.6250000   0.1250000   0.8750000), wk =   0.0937500
        k(   40) = (   1.1250000  -0.3750000   1.3750000), wk =   0.0000000
        k(   41) = (  -0.8750000   0.1250000   0.6250000), wk =   0.0937500
        k(   42) = (  -0.3750000  -0.3750000   1.1250000), wk =   0.0000000
        k(   43) = (   0.8750000   0.1250000  -0.6250000), wk =   0.0937500
        k(   44) = (   1.3750000  -0.3750000  -0.1250000), wk =   0.0000000
        k(   45) = (   0.3750000  -0.1250000   0.6250000), wk =   0.0937500
        k(   46) = (   0.8750000  -0.6250000   1.1250000), wk =   0.0000000
        k(   47) = (  -0.6250000  -0.1250000   0.3750000), wk =   0.0937500
        k(   48) = (  -0.1250000  -0.6250000   0.8750000), wk =   0.0000000
        k(   49) = (   0.6250000  -0.1250000  -0.3750000), wk =   0.0937500
        k(   50) = (   1.1250000  -0.6250000   0.1250000), wk =   0.0000000
        k(   51) = (  -0.1250000   0.8750000  -0.1250000), wk =   0.0468750
        k(   52) = (   0.3750000   0.3750000   0.3750000), wk =   0.0000000
        k(   53) = (   0.1250000   0.8750000   0.1250000), wk =   0.0468750
        k(   54) = (   0.6250000   0.3750000   0.6250000), wk =   0.0000000
        k(   55) = (   0.3750000  -0.3750000   0.3750000), wk =   0.0156250
        k(   56) = (   0.8750000  -0.8750000   0.8750000), wk =   0.0000000
        k(   57) = (   0.3750000   0.3750000   1.1250000), wk =   0.0937500
        k(   58) = (   0.8750000  -0.1250000   1.6250000), wk =   0.0000000
        k(   59) = (   1.1250000   0.3750000  -0.3750000), wk =   0.0468750
        k(   60) = (   1.6250000  -0.1250000   0.1250000), wk =   0.0000000

     Dense  grid:     2837 G-vectors     FFT dimensions: (  20,  20,  20)

     Estimated max dynamical RAM per process >       0.33MB

     Estimated total allocated dynamical RAM >       1.32MB

     Check: negative/imaginary core charge=   -0.000006    0.000000

     The potential is recalculated from file :
     ./_ph0/silicon.10.354.save/charge-density.dat

     Starting wfc are    8 atomic wfcs

     Band Structure Calculation
     Davidson diagonalization with overlap

     ethr =  1.25E-10,  avg # of iterations = 11.7

     total cpu time spent up to now is        1.6 secs

     End of band structure calculation

          k =-0.1250 0.1250 0.1250 (   344 PWs)   bands (ev):

    -5.6521   4.3318   5.6411   5.6411

          k = 0.3750-0.3750 0.6250 (   361 PWs)   bands (ev):

    -3.5063  -0.7098   3.6861   4.3958

          k =-0.3750 0.3750-0.1250 (   355 PWs)   bands (ev):

    -4.6336   1.3496   3.6703   5.1607

          k = 0.1250-0.1250 0.3750 (   353 PWs)   bands (ev):

    -5.1283   2.7165   4.6406   4.7008

          k = 0.3750-0.3750 0.6250 (   361 PWs)   bands (ev):

    -3.5063  -0.7098   3.6861   4.3958

          k = 0.8750-0.8750 1.1250 (   344 PWs)   bands (ev):

    -5.6521   4.3318   5.6411   5.6411

          k = 0.1250-0.1250 0.3750 (   353 PWs)   bands (ev):

    -5.1283   2.7165   4.6406   4.7008

          k = 0.6250-0.6250 0.8750 (   355 PWs)   bands (ev):

    -4.6336   1.3496   3.6703   5.1607

          k =-0.1250 0.6250 0.1250 (   351 PWs)   bands (ev):

    -4.1046   1.0064   3.3265   3.7722

          k = 0.3750 0.1250 0.6250 (   360 PWs)   bands (ev):

    -3.6937   0.1446   2.6889   4.0462

          k = 0.6250-0.1250 0.8750 (   361 PWs)   bands (ev):

    -2.4795  -0.9457   1.9885   3.0529

          k = 1.1250-0.6250 1.3750 (   355 PWs)   bands (ev):

    -4.6336   1.3496   3.6703   5.1607

          k = 0.3750 0.1250 0.6250 (   360 PWs)   bands (ev):

    -3.6937   0.1446   2.6889   4.0462

          k = 0.8750-0.3750 1.1250 (   351 PWs)   bands (ev):

    -4.1046   1.0064   3.3265   3.7722

          k =-0.1250-0.8750 0.1250 (   360 PWs)   bands (ev):

    -2.6438  -0.8500   2.5904   3.3079

          k = 0.3750-1.3750 0.6250 (   361 PWs)   bands (ev):

    -3.5063  -0.7098   3.6861   4.3958

          k =-0.3750 0.3750 0.3750 (   353 PWs)   bands (ev):

    -4.2055   0.0736   4.8563   4.8563

          k = 0.1250-0.1250 0.8750 (   360 PWs)   bands (ev):

    -2.6438  -0.8500   2.5904   3.3079

          k = 0.3750-0.3750 1.1250 (   363 PWs)   bands (ev):

    -3.0140  -0.6366   2.0428   4.0822

          k = 0.8750-0.8750 1.6250 (   351 PWs)   bands (ev):

    -4.1046   1.0064   3.3265   3.7722

          k = 0.1250-0.1250 0.1250 (   344 PWs)   bands (ev):

    -5.6521   4.3318   5.6411   5.6411

          k = 0.6250-0.6250 0.6250 (   353 PWs)   bands (ev):

    -4.2055   0.0736   4.8563   4.8563

          k =-0.3750-0.3750-0.1250 (   355 PWs)   bands (ev):

    -4.6336   1.3496   3.6703   5.1607

          k = 0.1250-0.8750 0.3750 (   361 PWs)   bands (ev):

    -2.4795  -0.9457   1.9885   3.0529

          k =-0.1250-0.3750 0.3750 (   355 PWs)   bands (ev):

    -4.6336   1.3496   3.6703   5.1607

          k = 0.3750-0.8750 0.8750 (   351 PWs)   bands (ev):

    -4.1046   1.0064   3.3265   3.7722

          k = 0.3750 0.3750 0.6250 (   361 PWs)   bands (ev):

    -3.5063  -0.7098   3.6861   4.3958

          k = 0.8750-0.1250 1.1250 (   360 PWs)   bands (ev):

    -2.6438  -0.8500   2.5904   3.3079

          k = 0.6250 0.3750-0.3750 (   361 PWs)   bands (ev):

    -3.5063  -0.7098   3.6861   4.3958

          k = 1.1250-0.1250 0.1250 (   360 PWs)   bands (ev):

    -2.6438  -0.8500   2.5904   3.3079

          k = 0.1250 0.1250 0.3750 (   353 PWs)   bands (ev):

    -5.1283   2.7165   4.6406   4.7008

          k = 0.6250-0.3750 0.8750 (   360 PWs)   bands (ev):

    -3.6937   0.1446   2.6889   4.0462

          k = 0.3750 0.1250-0.1250 (   353 PWs)   bands (ev):

    -5.1283   2.7165   4.6406   4.7008

          k = 0.8750-0.3750 0.3750 (   363 PWs)   bands (ev):

    -3.0140  -0.6366   2.0428   4.0822

          k =-0.1250-0.6250-0.1250 (   351 PWs)   bands (ev):

    -4.1046   1.0064   3.3265   3.7722

          k = 0.3750-1.1250 0.3750 (   363 PWs)   bands (ev):

    -3.0140  -0.6366   2.0428   4.0822

          k = 0.1250-0.6250 0.1250 (   351 PWs)   bands (ev):

    -4.1046   1.0064   3.3265   3.7722

          k = 0.6250-1.1250 0.6250 (   355 PWs)   bands (ev):

    -4.6336   1.3496   3.6703   5.1607

          k = 0.6250 0.1250 0.8750 (   361 PWs)   bands (ev):

    -2.4795  -0.9457   1.9885   3.0529

          k = 1.1250-0.3750 1.3750 (   360 PWs)   bands (ev):

    -3.6937   0.1446   2.6889   4.0462

          k =-0.8750 0.1250 0.6250 (   361 PWs)   bands (ev):

    -2.4795  -0.9457   1.9885   3.0529

          k =-0.3750-0.3750 1.1250 (   363 PWs)   bands (ev):

    -3.0140  -0.6366   2.0428   4.0822

          k = 0.8750 0.1250-0.6250 (   361 PWs)   bands (ev):

    -2.4795  -0.9457   1.9885   3.0529

          k = 1.3750-0.3750-0.1250 (   360 PWs)   bands (ev):

    -3.6937   0.1446   2.6889   4.0462

          k = 0.3750-0.1250 0.6250 (   360 PWs)   bands (ev):

    -3.6937   0.1446   2.6889   4.0462

          k = 0.8750-0.6250 1.1250 (   353 PWs)   bands (ev):

    -5.1283   2.7165   4.6406   4.7008

          k =-0.6250-0.1250 0.3750 (   360 PWs)   bands (ev):

    -3.6937   0.1446   2.6889   4.0462

          k =-0.1250-0.6250 0.8750 (   361 PWs)   bands (ev):

    -2.4795  -0.9457   1.9885   3.0529

          k = 0.6250-0.1250-0.3750 (   360 PWs)   bands (ev):

    -3.6937   0.1446   2.6889   4.0462

          k = 1.1250-0.6250 0.1250 (   361 PWs)   bands (ev):

    -2.4795  -0.9457   1.9885   3.0529

          k =-0.1250 0.8750-0.1250 (   360 PWs)   bands (ev):

    -2.6438  -0.8500   2.5904   3.3079

          k = 0.3750 0.3750 0.3750 (   353 PWs)   bands (ev):

    -4.2055   0.0736   4.8563   4.8563

          k = 0.1250 0.8750 0.1250 (   360 PWs)   bands (ev):

    -2.6438  -0.8500   2.5904   3.3079

          k = 0.6250 0.3750 0.6250 (   361 PWs)   bands (ev):

    -3.5063  -0.7098   3.6861   4.3958

          k = 0.3750-0.3750 0.3750 (   353 PWs)   bands (ev):

    -4.2055   0.0736   4.8563   4.8563

          k = 0.8750-0.8750 0.8750 (   344 PWs)   bands (ev):

    -5.6521   4.3318   5.6411   5.6411

          k = 0.3750 0.3750 1.1250 (   363 PWs)   bands (ev):

    -3.0140  -0.6366   2.0428   4.0822

          k = 0.8750-0.1250 1.6250 (   361 PWs)   bands (ev):

    -2.4795  -0.9457   1.9885   3.0529

          k = 1.1250 0.3750-0.3750 (   363 PWs)   bands (ev):

    -3.0140  -0.6366   2.0428   4.0822

          k = 1.6250-0.1250 0.1250 (   353 PWs)   bands (ev):

    -5.1283   2.7165   4.6406   4.7008

     highest occupied level (ev):     5.6411

     Writing output data file silicon.10.354.save

                                                                                

     bravais-lattice index     =            2
     lattice parameter (alat)  =      10.3540  a.u.
     unit-cell volume          =     277.5010 (a.u.)^3
     number of atoms/cell      =            2
     number of atomic types    =            1
     kinetic-energy cut-off    =      18.0000  Ry
     charge density cut-off    =      72.0000  Ry
     convergence threshold     =      1.0E-12
     beta                      =       0.7000
     number of iterations used =            4
     Exchange-correlation      = SLA  PW   PBE  PBE ( 1  4  3  4 0 0)


     celldm(1)=   10.35400  celldm(2)=    0.00000  celldm(3)=    0.00000
     celldm(4)=    0.00000  celldm(5)=    0.00000  celldm(6)=    0.00000

     crystal axes: (cart. coord. in units of alat)
               a(1) = ( -0.5000  0.0000  0.5000 )  
               a(2) = (  0.0000  0.5000  0.5000 )  
               a(3) = ( -0.5000  0.5000  0.0000 )  

     reciprocal axes: (cart. coord. in units 2 pi/alat)
               b(1) = ( -1.0000 -1.0000  1.0000 )  
               b(2) = (  1.0000  1.0000  1.0000 )  
               b(3) = ( -1.0000  1.0000 -1.0000 )  


     Atoms inside the unit cell: 

     Cartesian axes

     site n.  atom      mass           positions (alat units)
        1     Si  28.0860   tau(    1) = (    0.00000    0.00000    0.00000  )
        2     Si  28.0860   tau(    2) = (    0.25000    0.25000    0.25000  )

     Computing dynamical matrix for 
                    q = (   0.5000000  -0.5000000   0.5000000 )

     13 Sym.Ops. (with q -> -q+G )


     G cutoff =  195.5191  (    710 G-vectors)     FFT grid: ( 20, 20, 20)
     number of k points=    60

     PseudoPot. # 1 for Si read from file:
     /home/max/quantum_espresso/qe-6.1/pseudo/si_pbe_v1.uspp.F.UPF.txt
     MD5 check sum: a056efeee980c13900f22a371efd63c1
     Pseudo is Ultrasoft + core correction, Zval =  4.0
     Generated by new atomic code, or converted to UPF format
     Using radial grid of  899 points,  6 beta functions with: 
                l(1) =   0
                l(2) =   0
                l(3) =   1
                l(4) =   1
                l(5) =   2
                l(6) =   2
     Q(r) pseudized with  8 coefficients,  rinner =    0.900   0.900   0.900
                                                       0.900   0.900


     Atomic displacements:
     There are   4 irreducible representations

     Representation     1      1 modes -  To be done

     Representation     2      1 modes -  To be done

     Representation     3      2 modes -  To be done

     Representation     4      2 modes -  To be done



     Alpha used in Ewald sum =   0.7000
     PHONON       :    17.73s CPU        18.98s WALL



     Representation #  1 mode #   1

     Self-consistent Calculation

      iter #   1 total cpu time :    19.1 secs   av.it.:   4.8
      thresh= 1.000E-02 alpha_mix =  0.700 |ddv_scf|^2 =  2.478E-05

      iter #   2 total cpu time :    19.5 secs   av.it.:   8.3
      thresh= 4.978E-04 alpha_mix =  0.700 |ddv_scf|^2 =  2.214E-05

      iter #   3 total cpu time :    19.6 secs   av.it.:   7.5
      thresh= 4.706E-04 alpha_mix =  0.700 |ddv_scf|^2 =  4.389E-08

      iter #   4 total cpu time :    19.8 secs   av.it.:   7.4
      thresh= 2.095E-05 alpha_mix =  0.700 |ddv_scf|^2 =  1.339E-10

      iter #   5 total cpu time :    19.9 secs   av.it.:   8.0
      thresh= 1.157E-06 alpha_mix =  0.700 |ddv_scf|^2 =  3.561E-12

      iter #   6 total cpu time :    20.1 secs   av.it.:   7.9
      thresh= 1.887E-07 alpha_mix =  0.700 |ddv_scf|^2 =  4.326E-14

     End of self-consistent calculation

     Convergence has been achieved 


     Representation #  2 mode #   2

     Self-consistent Calculation

      iter #   1 total cpu time :    20.2 secs   av.it.:   5.6
      thresh= 1.000E-02 alpha_mix =  0.700 |ddv_scf|^2 =  3.439E-04

      iter #   2 total cpu time :    20.4 secs   av.it.:   8.3
      thresh= 1.854E-03 alpha_mix =  0.700 |ddv_scf|^2 =  1.061E-03

      iter #   3 total cpu time :    20.5 secs   av.it.:   7.1
      thresh= 3.257E-03 alpha_mix =  0.700 |ddv_scf|^2 =  1.323E-07

      iter #   4 total cpu time :    20.7 secs   av.it.:   8.1
      thresh= 3.638E-05 alpha_mix =  0.700 |ddv_scf|^2 =  8.610E-09

      iter #   5 total cpu time :    20.9 secs   av.it.:   8.5
      thresh= 9.279E-06 alpha_mix =  0.700 |ddv_scf|^2 =  1.357E-10

      iter #   6 total cpu time :    21.0 secs   av.it.:   8.2
      thresh= 1.165E-06 alpha_mix =  0.700 |ddv_scf|^2 =  2.542E-12

      iter #   7 total cpu time :    21.2 secs   av.it.:   7.8
      thresh= 1.594E-07 alpha_mix =  0.700 |ddv_scf|^2 =  5.008E-15

     End of self-consistent calculation

     Convergence has been achieved 


     Representation #  3 modes #   3  4

     Self-consistent Calculation

      iter #   1 total cpu time :    21.6 secs   av.it.:   4.7
      thresh= 1.000E-02 alpha_mix =  0.700 |ddv_scf|^2 =  3.343E-07

      iter #   2 total cpu time :    22.0 secs   av.it.:   9.1
      thresh= 5.782E-05 alpha_mix =  0.700 |ddv_scf|^2 =  2.837E-08

      iter #   3 total cpu time :    22.3 secs   av.it.:   8.3
      thresh= 1.684E-05 alpha_mix =  0.700 |ddv_scf|^2 =  5.021E-10

      iter #   4 total cpu time :    22.6 secs   av.it.:   8.9
      thresh= 2.241E-06 alpha_mix =  0.700 |ddv_scf|^2 =  6.229E-12

      iter #   5 total cpu time :    22.9 secs   av.it.:   8.7
      thresh= 2.496E-07 alpha_mix =  0.700 |ddv_scf|^2 =  3.129E-14

     End of self-consistent calculation

     Convergence has been achieved 


     Representation #  4 modes #   5  6

     Self-consistent Calculation

      iter #   1 total cpu time :    23.2 secs   av.it.:   4.9
      thresh= 1.000E-02 alpha_mix =  0.700 |ddv_scf|^2 =  9.870E-07

      iter #   2 total cpu time :    23.7 secs   av.it.:   9.4
      thresh= 9.935E-05 alpha_mix =  0.700 |ddv_scf|^2 =  7.756E-08

      iter #   3 total cpu time :    24.1 secs   av.it.:   9.3
      thresh= 2.785E-05 alpha_mix =  0.700 |ddv_scf|^2 =  5.050E-09

      iter #   4 total cpu time :    24.4 secs   av.it.:   8.5
      thresh= 7.106E-06 alpha_mix =  0.700 |ddv_scf|^2 =  6.492E-12

      iter #   5 total cpu time :    24.7 secs   av.it.:   8.9
      thresh= 2.548E-07 alpha_mix =  0.700 |ddv_scf|^2 =  2.359E-14

     End of self-consistent calculation

     Convergence has been achieved 

     Number of q in the star =    4
     List of q in the star:
          1   0.500000000  -0.500000000   0.500000000
          2   0.500000000   0.500000000   0.500000000
          3  -0.500000000   0.500000000   0.500000000
          4   0.500000000   0.500000000  -0.500000000

     Diagonalizing the dynamical matrix

     q = (    0.500000000  -0.500000000   0.500000000 ) 

 **************************************************************************
     freq (    1) =       4.807915 [THz] =     160.374790 [cm-1]
     freq (    2) =       4.807915 [THz] =     160.374790 [cm-1]
     freq (    3) =      11.808308 [THz] =     393.882761 [cm-1]
     freq (    4) =      12.076117 [THz] =     402.815917 [cm-1]
     freq (    5) =      14.610729 [THz] =     487.361469 [cm-1]
     freq (    6) =      14.610729 [THz] =     487.361469 [cm-1]
 **************************************************************************

     Calculation of q =    0.0000000   0.5000000   0.0000000

   Info: using nr1, nr2, nr3 values from input

   Info: using nr1, nr2, nr3 values from input

     Parallelization info
     --------------------
     sticks:   dense  smooth     PW     G-vecs:    dense   smooth      PW
     Min          64      64     27                  709      709     175
     Max          67      67     28                  710      710     176
     Sum         265     265    109                 2837     2837     701



     bravais-lattice index     =            2
     lattice parameter (alat)  =      10.3540  a.u.
     unit-cell volume          =     277.5010 (a.u.)^3
     number of atoms/cell      =            2
     number of atomic types    =            1
     number of electrons       =         8.00
     number of Kohn-Sham states=            4
     kinetic-energy cutoff     =      18.0000  Ry
     charge density cutoff     =      72.0000  Ry
     Exchange-correlation      = SLA  PW   PBE  PBE ( 1  4  3  4 0 0)

     celldm(1)=  10.354000  celldm(2)=   0.000000  celldm(3)=   0.000000
     celldm(4)=   0.000000  celldm(5)=   0.000000  celldm(6)=   0.000000

     crystal axes: (cart. coord. in units of alat)
               a(1) = (  -0.500000   0.000000   0.500000 )  
               a(2) = (   0.000000   0.500000   0.500000 )  
               a(3) = (  -0.500000   0.500000   0.000000 )  

     reciprocal axes: (cart. coord. in units 2 pi/alat)
               b(1) = ( -1.000000 -1.000000  1.000000 )  
               b(2) = (  1.000000  1.000000  1.000000 )  
               b(3) = ( -1.000000  1.000000 -1.000000 )  


     PseudoPot. # 1 for Si read from file:
     /home/max/quantum_espresso/qe-6.1/pseudo/si_pbe_v1.uspp.F.UPF.txt
     MD5 check sum: a056efeee980c13900f22a371efd63c1
     Pseudo is Ultrasoft + core correction, Zval =  4.0
     Generated by new atomic code, or converted to UPF format
     Using radial grid of  899 points,  6 beta functions with: 
                l(1) =   0
                l(2) =   0
                l(3) =   1
                l(4) =   1
                l(5) =   2
                l(6) =   2
     Q(r) pseudized with  8 coefficients,  rinner =    0.900   0.900   0.900
                                                       0.900   0.900

     atomic species   valence    mass     pseudopotential
        Si             4.00    28.08600     Si( 1.00)

     48 Sym. Ops., with inversion, found



   Cartesian axes

     site n.     atom                  positions (alat units)
         1           Si  tau(   1) = (   0.0000000   0.0000000   0.0000000  )
         2           Si  tau(   2) = (   0.2500000   0.2500000   0.2500000  )

     number of k points=    80
                       cart. coord. in units 2pi/alat
        k(    1) = (  -0.1250000   0.1250000   0.1250000), wk =   0.0312500
        k(    2) = (  -0.1250000   0.6250000   0.1250000), wk =   0.0000000
        k(    3) = (  -0.3750000   0.3750000  -0.1250000), wk =   0.0625000
        k(    4) = (  -0.3750000   0.8750000  -0.1250000), wk =   0.0000000
        k(    5) = (   0.3750000  -0.3750000   0.6250000), wk =   0.0625000
        k(    6) = (   0.3750000   0.1250000   0.6250000), wk =   0.0000000
        k(    7) = (   0.1250000  -0.1250000   0.3750000), wk =   0.0625000
        k(    8) = (   0.1250000   0.3750000   0.3750000), wk =   0.0000000
        k(    9) = (  -0.1250000   0.6250000   0.1250000), wk =   0.0312500
        k(   10) = (  -0.1250000   1.1250000   0.1250000), wk =   0.0000000
        k(   11) = (   0.6250000  -0.1250000   0.8750000), wk =   0.0625000
        k(   12) = (   0.6250000   0.3750000   0.8750000), wk =   0.0000000
        k(   13) = (   0.3750000   0.1250000   0.6250000), wk =   0.0625000
        k(   14) = (   0.3750000   0.6250000   0.6250000), wk =   0.0000000
        k(   15) = (  -0.1250000  -0.8750000   0.1250000), wk =   0.0312500
        k(   16) = (  -0.1250000  -0.3750000   0.1250000), wk =   0.0000000
        k(   17) = (  -0.3750000   0.3750000   0.3750000), wk =   0.0312500
        k(   18) = (  -0.3750000   0.8750000   0.3750000), wk =   0.0000000
        k(   19) = (   0.3750000  -0.3750000   1.1250000), wk =   0.0625000
        k(   20) = (   0.3750000   0.1250000   1.1250000), wk =   0.0000000
        k(   21) = (  -0.1250000  -0.1250000   0.1250000), wk =   0.0312500
        k(   22) = (  -0.1250000   0.3750000   0.1250000), wk =   0.0000000
        k(   23) = (   0.1250000  -0.3750000   0.3750000), wk =   0.0625000
        k(   24) = (   0.1250000   0.1250000   0.3750000), wk =   0.0000000
        k(   25) = (   0.3750000  -0.1250000   0.3750000), wk =   0.0312500
        k(   26) = (   0.3750000   0.3750000   0.3750000), wk =   0.0000000
        k(   27) = (   0.3750000   0.1250000   0.3750000), wk =   0.0312500
        k(   28) = (   0.3750000   0.6250000   0.3750000), wk =   0.0000000
        k(   29) = (  -0.6250000   0.3750000  -0.3750000), wk =   0.0625000
        k(   30) = (  -0.6250000   0.8750000  -0.3750000), wk =   0.0000000
        k(   31) = (  -0.3750000   0.6250000  -0.3750000), wk =   0.0312500
        k(   32) = (  -0.3750000   1.1250000  -0.3750000), wk =   0.0000000
        k(   33) = (  -0.3750000  -0.6250000  -0.3750000), wk =   0.0312500
        k(   34) = (  -0.3750000  -0.1250000  -0.3750000), wk =   0.0000000
        k(   35) = (  -0.3750000   0.1250000  -0.1250000), wk =   0.0625000
        k(   36) = (  -0.3750000   0.6250000  -0.1250000), wk =   0.0000000
        k(   37) = (  -0.1250000   0.3750000  -0.1250000), wk =   0.0312500
        k(   38) = (  -0.1250000   0.8750000  -0.1250000), wk =   0.0000000
        k(   39) = (  -0.1250000  -0.3750000  -0.1250000), wk =   0.0312500
        k(   40) = (  -0.1250000   0.1250000  -0.1250000), wk =   0.0000000
        k(   41) = (  -0.1250000  -0.6250000   0.1250000), wk =   0.0312500
        k(   42) = (  -0.1250000  -0.1250000   0.1250000), wk =   0.0000000
        k(   43) = (   0.6250000  -0.1250000  -0.1250000), wk =   0.0625000
        k(   44) = (   0.6250000   0.3750000  -0.1250000), wk =   0.0000000
        k(   45) = (   0.6250000   0.1250000   0.1250000), wk =   0.0625000
        k(   46) = (   0.6250000   0.6250000   0.1250000), wk =   0.0000000
        k(   47) = (  -0.8750000   0.1250000  -0.6250000), wk =   0.0625000
        k(   48) = (  -0.8750000   0.6250000  -0.6250000), wk =   0.0000000
        k(   49) = (  -0.1250000   0.6250000  -0.8750000), wk =   0.0625000
        k(   50) = (  -0.1250000   1.1250000  -0.8750000), wk =   0.0000000
        k(   51) = (  -0.1250000   0.8750000  -0.6250000), wk =   0.0625000
        k(   52) = (  -0.1250000   1.3750000  -0.6250000), wk =   0.0000000
        k(   53) = (  -0.1250000  -0.8750000  -0.6250000), wk =   0.0625000
        k(   54) = (  -0.1250000  -0.3750000  -0.6250000), wk =   0.0000000
        k(   55) = (   0.8750000  -0.6250000   0.1250000), wk =   0.0625000
        k(   56) = (   0.8750000  -0.1250000   0.1250000), wk =   0.0000000
        k(   57) = (  -0.6250000  -0.1250000  -0.3750000), wk =   0.0625000
        k(   58) = (  -0.6250000   0.3750000  -0.3750000), wk =   0.0000000
        k(   59) = (   0.1250000   0.3750000  -0.6250000), wk =   0.0625000
        k(   60) = (   0.1250000   0.8750000  -0.6250000), wk =   0.0000000
        k(   61) = (   0.1250000   0.6250000  -0.3750000), wk =   0.0625000
        k(   62) = (   0.1250000   1.1250000  -0.3750000), wk =   0.0000000
        k(   63) = (   0.1250000  -0.6250000  -0.3750000), wk =   0.0625000
        k(   64) = (   0.1250000  -0.1250000  -0.3750000), wk =   0.0000000
        k(   65) = (   0.6250000  -0.3750000  -0.1250000), wk =   0.0625000
        k(   66) = (   0.6250000   0.1250000  -0.1250000), wk =   0.0000000
        k(   67) = (  -0.1250000   0.8750000   0.1250000), wk =   0.0312500
        k(   68) = (  -0.1250000   1.3750000   0.1250000), wk =   0.0000000
        k(   69) = (  -0.8750000  -0.1250000  -0.1250000), wk =   0.0625000
        k(   70) = (  -0.8750000   0.3750000  -0.1250000), wk =   0.0000000
        k(   71) = (  -0.8750000   0.1250000   0.1250000), wk =   0.0625000
        k(   72) = (  -0.8750000   0.6250000   0.1250000), wk =   0.0000000
        k(   73) = (  -0.3750000  -0.3750000   0.3750000), wk =   0.0312500
        k(   74) = (  -0.3750000   0.1250000   0.3750000), wk =   0.0000000
        k(   75) = (  -1.1250000   0.3750000  -0.3750000), wk =   0.0625000
        k(   76) = (  -1.1250000   0.8750000  -0.3750000), wk =   0.0000000
        k(   77) = (  -0.3750000   1.1250000  -0.3750000), wk =   0.0312500
        k(   78) = (  -0.3750000   1.6250000  -0.3750000), wk =   0.0000000
        k(   79) = (  -0.3750000  -1.1250000  -0.3750000), wk =   0.0312500
        k(   80) = (  -0.3750000  -0.6250000  -0.3750000), wk =   0.0000000

     Dense  grid:     2837 G-vectors     FFT dimensions: (  20,  20,  20)

     Estimated max dynamical RAM per process >       0.33MB

     Estimated total allocated dynamical RAM >       1.32MB

     Check: negative/imaginary core charge=   -0.000006    0.000000

     The potential is recalculated from file :
     ./_ph0/silicon.10.354.save/charge-density.dat

     Starting wfc are    8 atomic wfcs

     Band Structure Calculation
     Davidson diagonalization with overlap

     ethr =  1.25E-10,  avg # of iterations = 11.7

     total cpu time spent up to now is        2.5 secs

     End of band structure calculation

          k =-0.1250 0.1250 0.1250 (   344 PWs)   bands (ev):

    -5.6521   4.3318   5.6411   5.6411

          k =-0.1250 0.6250 0.1250 (   351 PWs)   bands (ev):

    -4.1046   1.0064   3.3265   3.7722

          k =-0.3750 0.3750-0.1250 (   355 PWs)   bands (ev):

    -4.6336   1.3496   3.6703   5.1607

          k =-0.3750 0.8750-0.1250 (   361 PWs)   bands (ev):

    -2.4795  -0.9457   1.9885   3.0529

          k = 0.3750-0.3750 0.6250 (   361 PWs)   bands (ev):

    -3.5063  -0.7098   3.6861   4.3958

          k = 0.3750 0.1250 0.6250 (   360 PWs)   bands (ev):

    -3.6937   0.1446   2.6889   4.0462

          k = 0.1250-0.1250 0.3750 (   353 PWs)   bands (ev):

    -5.1283   2.7165   4.6406   4.7008

          k = 0.1250 0.3750 0.3750 (   355 PWs)   bands (ev):

    -4.6336   1.3496   3.6703   5.1607

          k =-0.1250 0.6250 0.1250 (   351 PWs)   bands (ev):

    -4.1046   1.0064   3.3265   3.7722

          k =-0.1250 1.1250 0.1250 (   360 PWs)   bands (ev):

    -2.6438  -0.8500   2.5904   3.3079

          k = 0.6250-0.1250 0.8750 (   361 PWs)   bands (ev):

    -2.4795  -0.9457   1.9885   3.0529

          k = 0.6250 0.3750 0.8750 (   360 PWs)   bands (ev):

    -3.6937   0.1446   2.6889   4.0462

          k = 0.3750 0.1250 0.6250 (   360 PWs)   bands (ev):

    -3.6937   0.1446   2.6889   4.0462

          k = 0.3750 0.6250 0.6250 (   361 PWs)   bands (ev):

    -3.5063  -0.7098   3.6861   4.3958

          k =-0.1250-0.8750 0.1250 (   360 PWs)   bands (ev):

    -2.6438  -0.8500   2.5904   3.3079

          k =-0.1250-0.3750 0.1250 (   353 PWs)   bands (ev):

    -5.1283   2.7165   4.6406   4.7008

          k =-0.3750 0.3750 0.3750 (   353 PWs)   bands (ev):

    -4.2055   0.0736   4.8563   4.8563

          k =-0.3750 0.8750 0.3750 (   363 PWs)   bands (ev):

    -3.0140  -0.6366   2.0428   4.0822

          k = 0.3750-0.3750 1.1250 (   363 PWs)   bands (ev):

    -3.0140  -0.6366   2.0428   4.0822

          k = 0.3750 0.1250 1.1250 (   361 PWs)   bands (ev):

    -2.4795  -0.9457   1.9885   3.0529

          k =-0.1250-0.1250 0.1250 (   344 PWs)   bands (ev):

    -5.6521   4.3318   5.6411   5.6411

          k =-0.1250 0.3750 0.1250 (   353 PWs)   bands (ev):

    -5.1283   2.7165   4.6406   4.7008

          k = 0.1250-0.3750 0.3750 (   355 PWs)   bands (ev):

    -4.6336   1.3496   3.6703   5.1607

          k = 0.1250 0.1250 0.3750 (   353 PWs)   bands (ev):

    -5.1283   2.7165   4.6406   4.7008

          k = 0.3750-0.1250 0.3750 (   355 PWs)   bands (ev):

    -4.6336   1.3496   3.6703   5.1607

          k = 0.3750 0.3750 0.3750 (   353 PWs)   bands (ev):

    -4.2055   0.0736   4.8563   4.8563

          k = 0.3750 0.1250 0.3750 (   355 PWs)   bands (ev):

    -4.6336   1.3496   3.6703   5.1607

          k = 0.3750 0.6250 0.3750 (   361 PWs)   bands (ev):

    -3.5063  -0.7098   3.6861   4.3958

          k =-0.6250 0.3750-0.3750 (   361 PWs)   bands (ev):

    -3.5063  -0.7098   3.6861   4.3958

          k =-0.6250 0.8750-0.3750 (   360 PWs)   bands (ev):

    -3.6937   0.1446   2.6889   4.0462

          k =-0.3750 0.6250-0.3750 (   361 PWs)   bands (ev):

    -3.5063  -0.7098   3.6861   4.3958

          k =-0.3750 1.1250-0.3750 (   363 PWs)   bands (ev):

    -3.0140  -0.6366   2.0428   4.0822

          k =-0.3750-0.6250-0.3750 (   361 PWs)   bands (ev):

    -3.5063  -0.7098   3.6861   4.3958

          k =-0.3750-0.1250-0.3750 (   355 PWs)   bands (ev):

    -4.6336   1.3496   3.6703   5.1607

          k =-0.3750 0.1250-0.1250 (   353 PWs)   bands (ev):

    -5.1283   2.7165   4.6406   4.7008

          k =-0.3750 0.6250-0.1250 (   360 PWs)   bands (ev):

    -3.6937   0.1446   2.6889   4.0462

          k =-0.1250 0.3750-0.1250 (   353 PWs)   bands (ev):

    -5.1283   2.7165   4.6406   4.7008

          k =-0.1250 0.8750-0.1250 (   360 PWs)   bands (ev):

    -2.6438  -0.8500   2.5904   3.3079

          k =-0.1250-0.3750-0.1250 (   353 PWs)   bands (ev):

    -5.1283   2.7165   4.6406   4.7008

          k =-0.1250 0.1250-0.1250 (   344 PWs)   bands (ev):

    -5.6521   4.3318   5.6411   5.6411

          k =-0.1250-0.6250 0.1250 (   351 PWs)   bands (ev):

    -4.1046   1.0064   3.3265   3.7722

          k =-0.1250-0.1250 0.1250 (   344 PWs)   bands (ev):

    -5.6521   4.3318   5.6411   5.6411

          k = 0.6250-0.1250-0.1250 (   351 PWs)   bands (ev):

    -4.1046   1.0064   3.3265   3.7722

          k = 0.6250 0.3750-0.1250 (   360 PWs)   bands (ev):

    -3.6937   0.1446   2.6889   4.0462

          k = 0.6250 0.1250 0.1250 (   351 PWs)   bands (ev):

    -4.1046   1.0064   3.3265   3.7722

          k = 0.6250 0.6250 0.1250 (   363 PWs)   bands (ev):

    -3.0140  -0.6366   2.0428   4.0822

          k =-0.8750 0.1250-0.6250 (   361 PWs)   bands (ev):

    -2.4795  -0.9457   1.9885   3.0529

          k =-0.8750 0.6250-0.6250 (   355 PWs)   bands (ev):

    -4.6336   1.3496   3.6703   5.1607

          k =-0.1250 0.6250-0.8750 (   361 PWs)   bands (ev):

    -2.4795  -0.9457   1.9885   3.0529

          k =-0.1250 1.1250-0.8750 (   360 PWs)   bands (ev):

    -2.6438  -0.8500   2.5904   3.3079

          k =-0.1250 0.8750-0.6250 (   361 PWs)   bands (ev):

    -2.4795  -0.9457   1.9885   3.0529

          k =-0.1250 1.3750-0.6250 (   363 PWs)   bands (ev):

    -3.0140  -0.6366   2.0428   4.0822

          k =-0.1250-0.8750-0.6250 (   361 PWs)   bands (ev):

    -2.4795  -0.9457   1.9885   3.0529

          k =-0.1250-0.3750-0.6250 (   360 PWs)   bands (ev):

    -3.6937   0.1446   2.6889   4.0462

          k = 0.8750-0.6250 0.1250 (   361 PWs)   bands (ev):

    -2.4795  -0.9457   1.9885   3.0529

          k = 0.8750-0.1250 0.1250 (   360 PWs)   bands (ev):

    -2.6438  -0.8500   2.5904   3.3079

          k =-0.6250-0.1250-0.3750 (   360 PWs)   bands (ev):

    -3.6937   0.1446   2.6889   4.0462

          k =-0.6250 0.3750-0.3750 (   361 PWs)   bands (ev):

    -3.5063  -0.7098   3.6861   4.3958

          k = 0.1250 0.3750-0.6250 (   360 PWs)   bands (ev):

    -3.6937   0.1446   2.6889   4.0462

          k = 0.1250 0.8750-0.6250 (   361 PWs)   bands (ev):

    -2.4795  -0.9457   1.9885   3.0529

          k = 0.1250 0.6250-0.3750 (   360 PWs)   bands (ev):

    -3.6937   0.1446   2.6889   4.0462

          k = 0.1250 1.1250-0.3750 (   361 PWs)   bands (ev):

    -2.4795  -0.9457   1.9885   3.0529

          k = 0.1250-0.6250-0.3750 (   360 PWs)   bands (ev):

    -3.6937   0.1446   2.6889   4.0462

          k = 0.1250-0.1250-0.3750 (   353 PWs)   bands (ev):

    -5.1283   2.7165   4.6406   4.7008

          k = 0.6250-0.3750-0.1250 (   360 PWs)   bands (ev):

    -3.6937   0.1446   2.6889   4.0462

          k = 0.6250 0.1250-0.1250 (   351 PWs)   bands (ev):

    -4.1046   1.0064   3.3265   3.7722

          k =-0.1250 0.8750 0.1250 (   360 PWs)   bands (ev):

    -2.6438  -0.8500   2.5904   3.3079

          k =-0.1250 1.3750 0.1250 (   351 PWs)   bands (ev):

    -4.1046   1.0064   3.3265   3.7722

          k =-0.8750-0.1250-0.1250 (   360 PWs)   bands (ev):

    -2.6438  -0.8500   2.5904   3.3079

          k =-0.8750 0.3750-0.1250 (   361 PWs)   bands (ev):

    -2.4795  -0.9457   1.9885   3.0529

          k =-0.8750 0.1250 0.1250 (   360 PWs)   bands (ev):

    -2.6438  -0.8500   2.5904   3.3079

          k =-0.8750 0.6250 0.1250 (   361 PWs)   bands (ev):

    -2.4795  -0.9457   1.9885   3.0529

          k =-0.3750-0.3750 0.3750 (   353 PWs)   bands (ev):

    -4.2055   0.0736   4.8563   4.8563

          k =-0.3750 0.1250 0.3750 (   355 PWs)   bands (ev):

    -4.6336   1.3496   3.6703   5.1607

          k =-1.1250 0.3750-0.3750 (   363 PWs)   bands (ev):

    -3.0140  -0.6366   2.0428   4.0822

          k =-1.1250 0.8750-0.3750 (   351 PWs)   bands (ev):

    -4.1046   1.0064   3.3265   3.7722

          k =-0.3750 1.1250-0.3750 (   363 PWs)   bands (ev):

    -3.0140  -0.6366   2.0428   4.0822

          k =-0.3750 1.6250-0.3750 (   353 PWs)   bands (ev):

    -4.2055   0.0736   4.8563   4.8563

          k =-0.3750-1.1250-0.3750 (   363 PWs)   bands (ev):

    -3.0140  -0.6366   2.0428   4.0822

          k =-0.3750-0.6250-0.3750 (   361 PWs)   bands (ev):

    -3.5063  -0.7098   3.6861   4.3958

     highest occupied level (ev):     5.6411

     Writing output data file silicon.10.354.save

                                                                                

     bravais-lattice index     =            2
     lattice parameter (alat)  =      10.3540  a.u.
     unit-cell volume          =     277.5010 (a.u.)^3
     number of atoms/cell      =            2
     number of atomic types    =            1
     kinetic-energy cut-off    =      18.0000  Ry
     charge density cut-off    =      72.0000  Ry
     convergence threshold     =      1.0E-12
     beta                      =       0.7000
     number of iterations used =            4
     Exchange-correlation      = SLA  PW   PBE  PBE ( 1  4  3  4 0 0)


     celldm(1)=   10.35400  celldm(2)=    0.00000  celldm(3)=    0.00000
     celldm(4)=    0.00000  celldm(5)=    0.00000  celldm(6)=    0.00000

     crystal axes: (cart. coord. in units of alat)
               a(1) = ( -0.5000  0.0000  0.5000 )  
               a(2) = (  0.0000  0.5000  0.5000 )  
               a(3) = ( -0.5000  0.5000  0.0000 )  

     reciprocal axes: (cart. coord. in units 2 pi/alat)
               b(1) = ( -1.0000 -1.0000  1.0000 )  
               b(2) = (  1.0000  1.0000  1.0000 )  
               b(3) = ( -1.0000  1.0000 -1.0000 )  


     Atoms inside the unit cell: 

     Cartesian axes

     site n.  atom      mass           positions (alat units)
        1     Si  28.0860   tau(    1) = (    0.00000    0.00000    0.00000  )
        2     Si  28.0860   tau(    2) = (    0.25000    0.25000    0.25000  )

     Computing dynamical matrix for 
                    q = (   0.0000000   0.5000000   0.0000000 )

      8 Sym.Ops. (no q -> -q+G )


     G cutoff =  195.5191  (    710 G-vectors)     FFT grid: ( 20, 20, 20)
     number of k points=    80

     PseudoPot. # 1 for Si read from file:
     /home/max/quantum_espresso/qe-6.1/pseudo/si_pbe_v1.uspp.F.UPF.txt
     MD5 check sum: a056efeee980c13900f22a371efd63c1
     Pseudo is Ultrasoft + core correction, Zval =  4.0
     Generated by new atomic code, or converted to UPF format
     Using radial grid of  899 points,  6 beta functions with: 
                l(1) =   0
                l(2) =   0
                l(3) =   1
                l(4) =   1
                l(5) =   2
                l(6) =   2
     Q(r) pseudized with  8 coefficients,  rinner =    0.900   0.900   0.900
                                                       0.900   0.900

     Mode symmetry, C_4v (4mm)  point group:


     Atomic displacements:
     There are   4 irreducible representations

     Representation     1      1 modes -A_1  G_1 D_1  To be done

     Representation     2      1 modes -B_2  G_4 D_2'  To be done

     Representation     3      2 modes -E    G_5 D_5  To be done

     Representation     4      2 modes -E    G_5 D_5  To be done



     Alpha used in Ewald sum =   0.7000
     PHONON       :    24.21s CPU        25.88s WALL



     Representation #  1 mode #   1

     Self-consistent Calculation

      iter #   1 total cpu time :    26.1 secs   av.it.:   5.8
      thresh= 1.000E-02 alpha_mix =  0.700 |ddv_scf|^2 =  2.957E-03

      iter #   2 total cpu time :    26.3 secs   av.it.:   7.7
      thresh= 5.438E-03 alpha_mix =  0.700 |ddv_scf|^2 =  3.901E-02

      iter #   3 total cpu time :    26.5 secs   av.it.:   6.8
      thresh= 1.000E-02 alpha_mix =  0.700 |ddv_scf|^2 =  1.493E-07

      iter #   4 total cpu time :    26.7 secs   av.it.:   8.1
      thresh= 3.864E-05 alpha_mix =  0.700 |ddv_scf|^2 =  1.436E-08

      iter #   5 total cpu time :    26.9 secs   av.it.:   7.8
      thresh= 1.198E-05 alpha_mix =  0.700 |ddv_scf|^2 =  7.164E-10

      iter #   6 total cpu time :    27.1 secs   av.it.:   7.9
      thresh= 2.677E-06 alpha_mix =  0.700 |ddv_scf|^2 =  2.905E-12

      iter #   7 total cpu time :    27.5 secs   av.it.:   7.9
      thresh= 1.705E-07 alpha_mix =  0.700 |ddv_scf|^2 =  5.543E-13

     End of self-consistent calculation

     Convergence has been achieved 


     Representation #  2 mode #   2

     Self-consistent Calculation

      iter #   1 total cpu time :    27.7 secs   av.it.:   4.9
      thresh= 1.000E-02 alpha_mix =  0.700 |ddv_scf|^2 =  5.512E-06

      iter #   2 total cpu time :    27.9 secs   av.it.:   8.7
      thresh= 2.348E-04 alpha_mix =  0.700 |ddv_scf|^2 =  1.347E-06

      iter #   3 total cpu time :    28.1 secs   av.it.:   8.5
      thresh= 1.161E-04 alpha_mix =  0.700 |ddv_scf|^2 =  4.335E-08

      iter #   4 total cpu time :    28.3 secs   av.it.:   8.2
      thresh= 2.082E-05 alpha_mix =  0.700 |ddv_scf|^2 =  7.300E-10

      iter #   5 total cpu time :    28.6 secs   av.it.:   8.6
      thresh= 2.702E-06 alpha_mix =  0.700 |ddv_scf|^2 =  6.933E-12

      iter #   6 total cpu time :    28.8 secs   av.it.:   8.0
      thresh= 2.633E-07 alpha_mix =  0.700 |ddv_scf|^2 =  7.502E-14

     End of self-consistent calculation

     Convergence has been achieved 


     Representation #  3 modes #   3  4

     Self-consistent Calculation

      iter #   1 total cpu time :    29.1 secs   av.it.:   5.0
      thresh= 1.000E-02 alpha_mix =  0.700 |ddv_scf|^2 =  1.023E-06

      iter #   2 total cpu time :    29.7 secs   av.it.:   9.7
      thresh= 1.012E-04 alpha_mix =  0.700 |ddv_scf|^2 =  1.269E-07

      iter #   3 total cpu time :    30.2 secs   av.it.:   9.5
      thresh= 3.563E-05 alpha_mix =  0.700 |ddv_scf|^2 =  6.766E-09

      iter #   4 total cpu time :    30.6 secs   av.it.:   8.8
      thresh= 8.225E-06 alpha_mix =  0.700 |ddv_scf|^2 =  9.608E-12

      iter #   5 total cpu time :    31.1 secs   av.it.:   9.2
      thresh= 3.100E-07 alpha_mix =  0.700 |ddv_scf|^2 =  3.017E-13

     End of self-consistent calculation

     Convergence has been achieved 


     Representation #  4 modes #   5  6

     Self-consistent Calculation

      iter #   1 total cpu time :    31.6 secs   av.it.:   5.0
      thresh= 1.000E-02 alpha_mix =  0.700 |ddv_scf|^2 =  9.396E-07

      iter #   2 total cpu time :    32.1 secs   av.it.:   9.8
      thresh= 9.693E-05 alpha_mix =  0.700 |ddv_scf|^2 =  1.189E-07

      iter #   3 total cpu time :    32.6 secs   av.it.:   9.4
      thresh= 3.449E-05 alpha_mix =  0.700 |ddv_scf|^2 =  7.091E-09

      iter #   4 total cpu time :    33.0 secs   av.it.:   8.9
      thresh= 8.421E-06 alpha_mix =  0.700 |ddv_scf|^2 =  1.493E-11

      iter #   5 total cpu time :    33.6 secs   av.it.:   9.2
      thresh= 3.864E-07 alpha_mix =  0.700 |ddv_scf|^2 =  4.462E-14

     End of self-consistent calculation

     Convergence has been achieved 

     Number of q in the star =    6
     List of q in the star:
          1   0.000000000   0.500000000   0.000000000
          2   0.000000000  -0.500000000   0.000000000
          3   0.500000000   0.000000000   0.000000000
          4   0.000000000   0.000000000   0.500000000
          5   0.000000000   0.000000000  -0.500000000
          6  -0.500000000   0.000000000   0.000000000

     Diagonalizing the dynamical matrix

     q = (    0.000000000   0.500000000   0.000000000 ) 

 **************************************************************************
     freq (    1) =       4.301924 [THz] =     143.496738 [cm-1]
     freq (    2) =       4.301924 [THz] =     143.496738 [cm-1]
     freq (    3) =       7.122156 [THz] =     237.569537 [cm-1]
     freq (    4) =      13.982707 [THz] =     466.412915 [cm-1]
     freq (    5) =      13.982707 [THz] =     466.412915 [cm-1]
     freq (    6) =      14.623968 [THz] =     487.803070 [cm-1]
 **************************************************************************

     Mode symmetry, C_4v (4mm)  point group:

     freq (  1 -  2) =        143.5  [cm-1]   --> E    G_5 D_5       
     freq (  3 -  3) =        237.6  [cm-1]   --> A_1  G_1 D_1       
     freq (  4 -  5) =        466.4  [cm-1]   --> E    G_5 D_5       
     freq (  6 -  6) =        487.8  [cm-1]   --> B_2  G_4 D_2'      

     Calculation of q =    0.7500000  -0.2500000   0.7500000

   Info: using nr1, nr2, nr3 values from input

   Info: using nr1, nr2, nr3 values from input

     Parallelization info
     --------------------
     sticks:   dense  smooth     PW     G-vecs:    dense   smooth      PW
     Min          64      64     30                  709      709     216
     Max          67      67     31                  710      710     218
     Sum         265     265    121                 2837     2837     869



     bravais-lattice index     =            2
     lattice parameter (alat)  =      10.3540  a.u.
     unit-cell volume          =     277.5010 (a.u.)^3
     number of atoms/cell      =            2
     number of atomic types    =            1
     number of electrons       =         8.00
     number of Kohn-Sham states=            4
     kinetic-energy cutoff     =      18.0000  Ry
     charge density cutoff     =      72.0000  Ry
     Exchange-correlation      = SLA  PW   PBE  PBE ( 1  4  3  4 0 0)

     celldm(1)=  10.354000  celldm(2)=   0.000000  celldm(3)=   0.000000
     celldm(4)=   0.000000  celldm(5)=   0.000000  celldm(6)=   0.000000

     crystal axes: (cart. coord. in units of alat)
               a(1) = (  -0.500000   0.000000   0.500000 )  
               a(2) = (   0.000000   0.500000   0.500000 )  
               a(3) = (  -0.500000   0.500000   0.000000 )  

     reciprocal axes: (cart. coord. in units 2 pi/alat)
               b(1) = ( -1.000000 -1.000000  1.000000 )  
               b(2) = (  1.000000  1.000000  1.000000 )  
               b(3) = ( -1.000000  1.000000 -1.000000 )  


     PseudoPot. # 1 for Si read from file:
     /home/max/quantum_espresso/qe-6.1/pseudo/si_pbe_v1.uspp.F.UPF.txt
     MD5 check sum: a056efeee980c13900f22a371efd63c1
     Pseudo is Ultrasoft + core correction, Zval =  4.0
     Generated by new atomic code, or converted to UPF format
     Using radial grid of  899 points,  6 beta functions with: 
                l(1) =   0
                l(2) =   0
                l(3) =   1
                l(4) =   1
                l(5) =   2
                l(6) =   2
     Q(r) pseudized with  8 coefficients,  rinner =    0.900   0.900   0.900
                                                       0.900   0.900

     atomic species   valence    mass     pseudopotential
        Si             4.00    28.08600     Si( 1.00)

     48 Sym. Ops., with inversion, found



   Cartesian axes

     site n.     atom                  positions (alat units)
         1           Si  tau(   1) = (   0.0000000   0.0000000   0.0000000  )
         2           Si  tau(   2) = (   0.2500000   0.2500000   0.2500000  )

     number of k points=   288

     Number of k-points >= 100: set verbosity='high' to print them.

     Dense  grid:     2837 G-vectors     FFT dimensions: (  20,  20,  20)

     Estimated max dynamical RAM per process >       0.33MB

     Estimated total allocated dynamical RAM >       1.32MB

     Check: negative/imaginary core charge=   -0.000006    0.000000

     The potential is recalculated from file :
     ./_ph0/silicon.10.354.save/charge-density.dat

     Starting wfc are    8 atomic wfcs

     Band Structure Calculation
     Davidson diagonalization with overlap

     ethr =  1.25E-10,  avg # of iterations = 11.6

     total cpu time spent up to now is        4.8 secs

     End of band structure calculation

     Number of k-points >= 100: set verbosity='high' to print the bands.

     highest occupied level (ev):     5.6411

     Writing output data file silicon.10.354.save

                                                                                

     bravais-lattice index     =            2
     lattice parameter (alat)  =      10.3540  a.u.
     unit-cell volume          =     277.5010 (a.u.)^3
     number of atoms/cell      =            2
     number of atomic types    =            1
     kinetic-energy cut-off    =      18.0000  Ry
     charge density cut-off    =      72.0000  Ry
     convergence threshold     =      1.0E-12
     beta                      =       0.7000
     number of iterations used =            4
     Exchange-correlation      = SLA  PW   PBE  PBE ( 1  4  3  4 0 0)


     celldm(1)=   10.35400  celldm(2)=    0.00000  celldm(3)=    0.00000
     celldm(4)=    0.00000  celldm(5)=    0.00000  celldm(6)=    0.00000

     crystal axes: (cart. coord. in units of alat)
               a(1) = ( -0.5000  0.0000  0.5000 )  
               a(2) = (  0.0000  0.5000  0.5000 )  
               a(3) = ( -0.5000  0.5000  0.0000 )  

     reciprocal axes: (cart. coord. in units 2 pi/alat)
               b(1) = ( -1.0000 -1.0000  1.0000 )  
               b(2) = (  1.0000  1.0000  1.0000 )  
               b(3) = ( -1.0000  1.0000 -1.0000 )  


     Atoms inside the unit cell: 

     Cartesian axes

     site n.  atom      mass           positions (alat units)
        1     Si  28.0860   tau(    1) = (    0.00000    0.00000    0.00000  )
        2     Si  28.0860   tau(    2) = (    0.25000    0.25000    0.25000  )

     Computing dynamical matrix for 
                    q = (   0.7500000  -0.2500000   0.7500000 )

      2 Sym.Ops. (no q -> -q+G )


     G cutoff =  195.5191  (    710 G-vectors)     FFT grid: ( 20, 20, 20)
     number of k points=   288

     PseudoPot. # 1 for Si read from file:
     /home/max/quantum_espresso/qe-6.1/pseudo/si_pbe_v1.uspp.F.UPF.txt
     MD5 check sum: a056efeee980c13900f22a371efd63c1
     Pseudo is Ultrasoft + core correction, Zval =  4.0
     Generated by new atomic code, or converted to UPF format
     Using radial grid of  899 points,  6 beta functions with: 
                l(1) =   0
                l(2) =   0
                l(3) =   1
                l(4) =   1
                l(5) =   2
                l(6) =   2
     Q(r) pseudized with  8 coefficients,  rinner =    0.900   0.900   0.900
                                                       0.900   0.900

     Mode symmetry, C_s (m)     point group:


     Atomic displacements:
     There are   6 irreducible representations

     Representation     1      1 modes -A'  To be done

     Representation     2      1 modes -A'  To be done

     Representation     3      1 modes -A'  To be done

     Representation     4      1 modes -A'  To be done

     Representation     5      1 modes -A''  To be done

     Representation     6      1 modes -A''  To be done



     Alpha used in Ewald sum =   0.7000
     PHONON       :    34.31s CPU        36.73s WALL



     Representation #  1 mode #   1

     Self-consistent Calculation

      iter #   1 total cpu time :    37.5 secs   av.it.:   5.3
      thresh= 1.000E-02 alpha_mix =  0.700 |ddv_scf|^2 =  6.107E-05

      iter #   2 total cpu time :    38.3 secs   av.it.:   8.9
      thresh= 7.815E-04 alpha_mix =  0.700 |ddv_scf|^2 =  1.603E-04

      iter #   3 total cpu time :    39.0 secs   av.it.:   7.6
      thresh= 1.266E-03 alpha_mix =  0.700 |ddv_scf|^2 =  1.147E-06

      iter #   4 total cpu time :    39.9 secs   av.it.:   8.4
      thresh= 1.071E-04 alpha_mix =  0.700 |ddv_scf|^2 =  6.259E-08

      iter #   5 total cpu time :    40.7 secs   av.it.:   8.3
      thresh= 2.502E-05 alpha_mix =  0.700 |ddv_scf|^2 =  7.586E-09

      iter #   6 total cpu time :    41.6 secs   av.it.:   8.5
      thresh= 8.710E-06 alpha_mix =  0.700 |ddv_scf|^2 =  8.490E-11

      iter #   7 total cpu time :    42.4 secs   av.it.:   8.8
      thresh= 9.214E-07 alpha_mix =  0.700 |ddv_scf|^2 =  3.041E-12

      iter #   8 total cpu time :    43.1 secs   av.it.:   8.6
      thresh= 1.744E-07 alpha_mix =  0.700 |ddv_scf|^2 =  1.774E-13

     End of self-consistent calculation

     Convergence has been achieved 


     Representation #  2 mode #   2

     Self-consistent Calculation

      iter #   1 total cpu time :    44.0 secs   av.it.:   5.4
      thresh= 1.000E-02 alpha_mix =  0.700 |ddv_scf|^2 =  1.086E-04

      iter #   2 total cpu time :    44.7 secs   av.it.:   8.7
      thresh= 1.042E-03 alpha_mix =  0.700 |ddv_scf|^2 =  3.102E-04

      iter #   3 total cpu time :    45.6 secs   av.it.:   7.4
      thresh= 1.761E-03 alpha_mix =  0.700 |ddv_scf|^2 =  7.970E-07

      iter #   4 total cpu time :    46.3 secs   av.it.:   8.6
      thresh= 8.928E-05 alpha_mix =  0.700 |ddv_scf|^2 =  6.093E-08

      iter #   5 total cpu time :    47.0 secs   av.it.:   8.2
      thresh= 2.468E-05 alpha_mix =  0.700 |ddv_scf|^2 =  1.084E-08

      iter #   6 total cpu time :    48.0 secs   av.it.:   8.5
      thresh= 1.041E-05 alpha_mix =  0.700 |ddv_scf|^2 =  8.469E-11

      iter #   7 total cpu time :    48.7 secs   av.it.:   8.7
      thresh= 9.203E-07 alpha_mix =  0.700 |ddv_scf|^2 =  2.695E-12

      iter #   8 total cpu time :    49.6 secs   av.it.:   8.7
      thresh= 1.642E-07 alpha_mix =  0.700 |ddv_scf|^2 =  6.839E-13

     End of self-consistent calculation

     Convergence has been achieved 


     Representation #  3 mode #   3

     Self-consistent Calculation

      iter #   1 total cpu time :    50.3 secs   av.it.:   5.3
      thresh= 1.000E-02 alpha_mix =  0.700 |ddv_scf|^2 =  8.523E-05

      iter #   2 total cpu time :    51.0 secs   av.it.:   8.8
      thresh= 9.232E-04 alpha_mix =  0.700 |ddv_scf|^2 =  2.275E-04

      iter #   3 total cpu time :    51.9 secs   av.it.:   7.4
      thresh= 1.508E-03 alpha_mix =  0.700 |ddv_scf|^2 =  1.356E-06

      iter #   4 total cpu time :    52.6 secs   av.it.:   8.2
      thresh= 1.165E-04 alpha_mix =  0.700 |ddv_scf|^2 =  6.255E-08

      iter #   5 total cpu time :    53.5 secs   av.it.:   8.4
      thresh= 2.501E-05 alpha_mix =  0.700 |ddv_scf|^2 =  1.118E-08

      iter #   6 total cpu time :    54.3 secs   av.it.:   8.4
      thresh= 1.057E-05 alpha_mix =  0.700 |ddv_scf|^2 =  4.820E-11

      iter #   7 total cpu time :    55.0 secs   av.it.:   8.7
      thresh= 6.943E-07 alpha_mix =  0.700 |ddv_scf|^2 =  1.743E-12

      iter #   8 total cpu time :    56.0 secs   av.it.:   8.8
      thresh= 1.320E-07 alpha_mix =  0.700 |ddv_scf|^2 =  2.980E-13

     End of self-consistent calculation

     Convergence has been achieved 


     Representation #  4 mode #   4

     Self-consistent Calculation

      iter #   1 total cpu time :    56.6 secs   av.it.:   5.2
      thresh= 1.000E-02 alpha_mix =  0.700 |ddv_scf|^2 =  3.768E-05

      iter #   2 total cpu time :    57.6 secs   av.it.:   8.9
[...]
        k(   59) = (  -0.8750000   0.1250000  -0.1250000), wk =   0.0625000
        k(   60) = (  -1.3750000  -0.8750000  -0.1250000), wk =   0.0000000
        k(   61) = (  -1.1250000   0.3750000  -0.3750000), wk =   0.0625000
        k(   62) = (  -1.6250000  -0.6250000  -0.3750000), wk =   0.0000000
        k(   63) = (  -0.3750000   0.3750000   1.1250000), wk =   0.0625000
        k(   64) = (  -0.8750000  -0.6250000   1.1250000), wk =   0.0000000

     Dense  grid:     2837 G-vectors     FFT dimensions: (  20,  20,  20)

     Estimated max dynamical RAM per process >       0.33MB

     Estimated total allocated dynamical RAM >       1.32MB

     Check: negative/imaginary core charge=   -0.000006    0.000000

     The potential is recalculated from file :
     ./_ph0/silicon.10.354.save/charge-density.dat

     Starting wfc are    8 atomic wfcs

     Band Structure Calculation
     Davidson diagonalization with overlap

     ethr =  1.25E-10,  avg # of iterations = 11.6

     total cpu time spent up to now is        7.5 secs

     End of band structure calculation

          k =-0.1250 0.1250 0.1250 (   344 PWs)   bands (ev):

    -5.6521   4.3318   5.6411   5.6411

          k =-0.6250-0.8750 0.1250 (   361 PWs)   bands (ev):

    -2.4795  -0.9457   1.9885   3.0529

          k =-0.3750 0.3750-0.1250 (   355 PWs)   bands (ev):

    -4.6336   1.3496   3.6703   5.1607

          k =-0.8750-0.6250-0.1250 (   361 PWs)   bands (ev):

    -2.4795  -0.9457   1.9885   3.0529

          k = 0.3750-0.3750 0.6250 (   361 PWs)   bands (ev):

    -3.5063  -0.7098   3.6861   4.3958

          k =-0.1250-1.3750 0.6250 (   363 PWs)   bands (ev):

    -3.0140  -0.6366   2.0428   4.0822

          k = 0.1250-0.1250 0.3750 (   353 PWs)   bands (ev):

    -5.1283   2.7165   4.6406   4.7008

          k =-0.3750-1.1250 0.3750 (   363 PWs)   bands (ev):

    -3.0140  -0.6366   2.0428   4.0822

          k =-0.1250 0.6250 0.1250 (   351 PWs)   bands (ev):

    -4.1046   1.0064   3.3265   3.7722

          k =-0.6250-0.3750 0.1250 (   360 PWs)   bands (ev):

    -3.6937   0.1446   2.6889   4.0462

          k = 0.6250-0.1250 0.8750 (   361 PWs)   bands (ev):

    -2.4795  -0.9457   1.9885   3.0529

          k = 0.1250-1.1250 0.8750 (   360 PWs)   bands (ev):

    -2.6438  -0.8500   2.5904   3.3079

          k = 0.3750 0.1250 0.6250 (   360 PWs)   bands (ev):

    -3.6937   0.1446   2.6889   4.0462

          k =-0.1250-0.8750 0.6250 (   361 PWs)   bands (ev):

    -2.4795  -0.9457   1.9885   3.0529

          k =-0.1250-0.8750 0.1250 (   360 PWs)   bands (ev):

    -2.6438  -0.8500   2.5904   3.3079

          k =-0.6250-1.8750 0.1250 (   351 PWs)   bands (ev):

    -4.1046   1.0064   3.3265   3.7722

          k =-0.3750 0.3750 0.3750 (   353 PWs)   bands (ev):

    -4.2055   0.0736   4.8563   4.8563

          k =-0.8750-0.6250 0.3750 (   360 PWs)   bands (ev):

    -3.6937   0.1446   2.6889   4.0462

          k = 0.3750-0.3750 1.1250 (   363 PWs)   bands (ev):

    -3.0140  -0.6366   2.0428   4.0822

          k =-0.1250-1.3750 1.1250 (   361 PWs)   bands (ev):

    -2.4795  -0.9457   1.9885   3.0529

          k = 0.1250-0.3750 0.3750 (   355 PWs)   bands (ev):

    -4.6336   1.3496   3.6703   5.1607

          k =-0.3750-1.3750 0.3750 (   361 PWs)   bands (ev):

    -3.5063  -0.7098   3.6861   4.3958

          k = 0.3750-0.3750-0.1250 (   355 PWs)   bands (ev):

    -4.6336   1.3496   3.6703   5.1607

          k =-0.1250-1.3750-0.1250 (   351 PWs)   bands (ev):

    -4.1046   1.0064   3.3265   3.7722

          k =-0.6250 0.3750-0.3750 (   361 PWs)   bands (ev):

    -3.5063  -0.7098   3.6861   4.3958

          k =-1.1250-0.6250-0.3750 (   360 PWs)   bands (ev):

    -3.6937   0.1446   2.6889   4.0462

          k =-0.3750 0.3750 0.6250 (   361 PWs)   bands (ev):

    -3.5063  -0.7098   3.6861   4.3958

          k =-0.8750-0.6250 0.6250 (   355 PWs)   bands (ev):

    -4.6336   1.3496   3.6703   5.1607

          k =-0.3750 0.1250-0.1250 (   353 PWs)   bands (ev):

    -5.1283   2.7165   4.6406   4.7008

          k =-0.8750-0.8750-0.1250 (   360 PWs)   bands (ev):

    -2.6438  -0.8500   2.5904   3.3079

          k =-0.1250 0.1250 0.3750 (   353 PWs)   bands (ev):

    -5.1283   2.7165   4.6406   4.7008

          k =-0.6250-0.8750 0.3750 (   360 PWs)   bands (ev):

    -3.6937   0.1446   2.6889   4.0462

          k = 0.1250 0.6250-0.1250 (   351 PWs)   bands (ev):

    -4.1046   1.0064   3.3265   3.7722

          k =-0.3750-0.3750-0.1250 (   355 PWs)   bands (ev):

    -4.6336   1.3496   3.6703   5.1607

          k = 0.6250 0.1250-0.1250 (   351 PWs)   bands (ev):

    -4.1046   1.0064   3.3265   3.7722

          k = 0.1250-0.8750-0.1250 (   360 PWs)   bands (ev):

    -2.6438  -0.8500   2.5904   3.3079

          k =-0.8750 0.1250-0.6250 (   361 PWs)   bands (ev):

    -2.4795  -0.9457   1.9885   3.0529

          k =-1.3750-0.8750-0.6250 (   355 PWs)   bands (ev):

    -4.6336   1.3496   3.6703   5.1607

          k = 0.8750-0.1250 0.6250 (   361 PWs)   bands (ev):

    -2.4795  -0.9457   1.9885   3.0529

          k = 0.3750-1.1250 0.6250 (   360 PWs)   bands (ev):

    -3.6937   0.1446   2.6889   4.0462

          k =-0.6250 0.1250 0.8750 (   361 PWs)   bands (ev):

    -2.4795  -0.9457   1.9885   3.0529

          k =-1.1250-0.8750 0.8750 (   344 PWs)   bands (ev):

    -5.6521   4.3318   5.6411   5.6411

          k =-0.1250 0.8750 0.6250 (   361 PWs)   bands (ev):

    -2.4795  -0.9457   1.9885   3.0529

          k =-0.6250-0.1250 0.6250 (   363 PWs)   bands (ev):

    -3.0140  -0.6366   2.0428   4.0822

          k = 0.1250 0.8750-0.6250 (   361 PWs)   bands (ev):

    -2.4795  -0.9457   1.9885   3.0529

          k =-0.3750-0.1250-0.6250 (   360 PWs)   bands (ev):

    -3.6937   0.1446   2.6889   4.0462

          k =-0.6250-0.1250-0.3750 (   360 PWs)   bands (ev):

    -3.6937   0.1446   2.6889   4.0462

          k =-1.1250-1.1250-0.3750 (   351 PWs)   bands (ev):

    -4.1046   1.0064   3.3265   3.7722

          k = 0.6250 0.1250 0.3750 (   360 PWs)   bands (ev):

    -3.6937   0.1446   2.6889   4.0462

          k = 0.1250-0.8750 0.3750 (   361 PWs)   bands (ev):

    -2.4795  -0.9457   1.9885   3.0529

          k =-0.3750-0.1250 0.6250 (   360 PWs)   bands (ev):

    -3.6937   0.1446   2.6889   4.0462

          k =-0.8750-1.1250 0.6250 (   353 PWs)   bands (ev):

    -5.1283   2.7165   4.6406   4.7008

          k = 0.1250 0.6250 0.3750 (   360 PWs)   bands (ev):

    -3.6937   0.1446   2.6889   4.0462

          k =-0.3750-0.3750 0.3750 (   353 PWs)   bands (ev):

    -4.2055   0.0736   4.8563   4.8563

          k =-0.1250 0.6250-0.3750 (   360 PWs)   bands (ev):

    -3.6937   0.1446   2.6889   4.0462

          k =-0.6250-0.3750-0.3750 (   361 PWs)   bands (ev):

    -3.5063  -0.7098   3.6861   4.3958

          k = 0.1250-0.8750-0.1250 (   360 PWs)   bands (ev):

    -2.6438  -0.8500   2.5904   3.3079

          k =-0.3750-1.8750-0.1250 (   353 PWs)   bands (ev):

    -5.1283   2.7165   4.6406   4.7008

          k =-0.8750 0.1250-0.1250 (   360 PWs)   bands (ev):

    -2.6438  -0.8500   2.5904   3.3079

          k =-1.3750-0.8750-0.1250 (   361 PWs)   bands (ev):

    -2.4795  -0.9457   1.9885   3.0529

          k =-1.1250 0.3750-0.3750 (   363 PWs)   bands (ev):

    -3.0140  -0.6366   2.0428   4.0822

          k =-1.6250-0.6250-0.3750 (   361 PWs)   bands (ev):

    -3.5063  -0.7098   3.6861   4.3958

          k =-0.3750 0.3750 1.1250 (   363 PWs)   bands (ev):

    -3.0140  -0.6366   2.0428   4.0822

          k =-0.8750-0.6250 1.1250 (   353 PWs)   bands (ev):

    -5.1283   2.7165   4.6406   4.7008

     highest occupied level (ev):     5.6411

     Writing output data file silicon.10.354.save

                                                                                

     bravais-lattice index     =            2
     lattice parameter (alat)  =      10.3540  a.u.
     unit-cell volume          =     277.5010 (a.u.)^3
     number of atoms/cell      =            2
     number of atomic types    =            1
     kinetic-energy cut-off    =      18.0000  Ry
     charge density cut-off    =      72.0000  Ry
     convergence threshold     =      1.0E-12
     beta                      =       0.7000
     number of iterations used =            4
     Exchange-correlation      = SLA  PW   PBE  PBE ( 1  4  3  4 0 0)


     celldm(1)=   10.35400  celldm(2)=    0.00000  celldm(3)=    0.00000
     celldm(4)=    0.00000  celldm(5)=    0.00000  celldm(6)=    0.00000

     crystal axes: (cart. coord. in units of alat)
               a(1) = ( -0.5000  0.0000  0.5000 )  
               a(2) = (  0.0000  0.5000  0.5000 )  
               a(3) = ( -0.5000  0.5000  0.0000 )  

     reciprocal axes: (cart. coord. in units 2 pi/alat)
               b(1) = ( -1.0000 -1.0000  1.0000 )  
               b(2) = (  1.0000  1.0000  1.0000 )  
               b(3) = ( -1.0000  1.0000 -1.0000 )  


     Atoms inside the unit cell: 

     Cartesian axes

     site n.  atom      mass           positions (alat units)
        1     Si  28.0860   tau(    1) = (    0.00000    0.00000    0.00000  )
        2     Si  28.0860   tau(    2) = (    0.25000    0.25000    0.25000  )

     Computing dynamical matrix for 
                    q = (  -0.5000000  -1.0000000   0.0000000 )

      8 Sym.Ops. (no q -> -q+G )


     G cutoff =  195.5191  (    710 G-vectors)     FFT grid: ( 20, 20, 20)
     number of k points=    64

     PseudoPot. # 1 for Si read from file:
     /home/max/quantum_espresso/qe-6.1/pseudo/si_pbe_v1.uspp.F.UPF.txt
     MD5 check sum: a056efeee980c13900f22a371efd63c1
     Pseudo is Ultrasoft + core correction, Zval =  4.0
     Generated by new atomic code, or converted to UPF format
     Using radial grid of  899 points,  6 beta functions with: 
                l(1) =   0
                l(2) =   0
                l(3) =   1
                l(4) =   1
                l(5) =   2
                l(6) =   2
     Q(r) pseudized with  8 coefficients,  rinner =    0.900   0.900   0.900
                                                       0.900   0.900


     Atomic displacements:
     There are   3 irreducible representations

     Representation     1      2 modes -  To be done

     Representation     2      2 modes -  To be done

     Representation     3      2 modes -  To be done



     Alpha used in Ewald sum =   0.7000
     PHONON       :  1m24.41s CPU     1m32.85s WALL



     Representation #  1 modes #   1  2

     Self-consistent Calculation

      iter #   1 total cpu time :    93.1 secs   av.it.:   5.3
      thresh= 1.000E-02 alpha_mix =  0.700 |ddv_scf|^2 =  6.345E-06

      iter #   2 total cpu time :    93.7 secs   av.it.:   9.9
      thresh= 2.519E-04 alpha_mix =  0.700 |ddv_scf|^2 =  3.420E-06

      iter #   3 total cpu time :    94.1 secs   av.it.:   9.3
      thresh= 1.849E-04 alpha_mix =  0.700 |ddv_scf|^2 =  9.128E-09

      iter #   4 total cpu time :    94.4 secs   av.it.:   9.1
      thresh= 9.554E-06 alpha_mix =  0.700 |ddv_scf|^2 =  1.965E-11

      iter #   5 total cpu time :    94.8 secs   av.it.:   9.2
      thresh= 4.433E-07 alpha_mix =  0.700 |ddv_scf|^2 =  5.781E-13

     End of self-consistent calculation

     Convergence has been achieved 


     Representation #  2 modes #   3  4

     Self-consistent Calculation

      iter #   1 total cpu time :    95.1 secs   av.it.:   5.2
      thresh= 1.000E-02 alpha_mix =  0.700 |ddv_scf|^2 =  9.789E-06

      iter #   2 total cpu time :    95.6 secs   av.it.:   9.9
      thresh= 3.129E-04 alpha_mix =  0.700 |ddv_scf|^2 =  1.310E-05

      iter #   3 total cpu time :    96.0 secs   av.it.:   9.1
      thresh= 3.620E-04 alpha_mix =  0.700 |ddv_scf|^2 =  1.064E-08

      iter #   4 total cpu time :    96.4 secs   av.it.:   8.8
      thresh= 1.031E-05 alpha_mix =  0.700 |ddv_scf|^2 =  8.667E-11

      iter #   5 total cpu time :    96.7 secs   av.it.:   9.4
      thresh= 9.310E-07 alpha_mix =  0.700 |ddv_scf|^2 =  1.830E-12

      iter #   6 total cpu time :    97.1 secs   av.it.:   9.1
      thresh= 1.353E-07 alpha_mix =  0.700 |ddv_scf|^2 =  1.491E-14

     End of self-consistent calculation

     Convergence has been achieved 


     Representation #  3 modes #   5  6

     Self-consistent Calculation

      iter #   1 total cpu time :    97.6 secs   av.it.:   5.1
      thresh= 1.000E-02 alpha_mix =  0.700 |ddv_scf|^2 =  2.661E-06

      iter #   2 total cpu time :    98.0 secs   av.it.:   9.7
      thresh= 1.631E-04 alpha_mix =  0.700 |ddv_scf|^2 =  1.445E-06

      iter #   3 total cpu time :    98.3 secs   av.it.:   9.0
      thresh= 1.202E-04 alpha_mix =  0.700 |ddv_scf|^2 =  8.836E-09

      iter #   4 total cpu time :    98.7 secs   av.it.:   8.7
      thresh= 9.400E-06 alpha_mix =  0.700 |ddv_scf|^2 =  4.403E-11

      iter #   5 total cpu time :    99.1 secs   av.it.:   9.1
      thresh= 6.635E-07 alpha_mix =  0.700 |ddv_scf|^2 =  6.920E-13

     End of self-consistent calculation

     Convergence has been achieved 

     Number of q in the star =    6
     List of q in the star:
          1  -0.500000000  -1.000000000   0.000000000
          2   0.000000000   1.000000000   0.500000000
          3   0.000000000  -1.000000000  -0.500000000
          4   0.500000000   1.000000000   0.000000000
          5  -1.000000000  -0.500000000   0.000000000
          6   0.000000000  -0.500000000  -1.000000000

     Diagonalizing the dynamical matrix

     q = (   -0.500000000  -1.000000000   0.000000000 ) 

 **************************************************************************
     freq (    1) =       7.357468 [THz] =     245.418731 [cm-1]
     freq (    2) =       7.357468 [THz] =     245.418731 [cm-1]
     freq (    3) =      10.921260 [THz] =     364.294022 [cm-1]
     freq (    4) =      10.921260 [THz] =     364.294022 [cm-1]
     freq (    5) =      13.813129 [THz] =     460.756389 [cm-1]
     freq (    6) =      13.813129 [THz] =     460.756389 [cm-1]
 **************************************************************************

     init_run     :      0.55s CPU      0.59s WALL (       7 calls)
     electrons    :      5.43s CPU      6.09s WALL (       7 calls)

     Called by init_run:
     wfcinit      :      0.00s CPU      0.00s WALL (       7 calls)
     potinit      :      0.02s CPU      0.02s WALL (       7 calls)

     Called by electrons:
     c_bands      :      5.43s CPU      6.07s WALL (       7 calls)
     v_of_rho     :      0.01s CPU      0.01s WALL (       8 calls)
     newd         :      0.03s CPU      0.03s WALL (       8 calls)

     Called by c_bands:
     init_us_2    :      0.69s CPU      0.76s WALL (   17588 calls)
     cegterg      :      4.57s CPU      5.12s WALL (     796 calls)

     Called by sum_band:

     Called by *egterg:
     h_psi        :     49.92s CPU     54.85s WALL (  152122 calls)
     s_psi        :      5.86s CPU      6.39s WALL (  308964 calls)
     g_psi        :      0.03s CPU      0.03s WALL (    9268 calls)
     cdiaghg      :      0.50s CPU      0.56s WALL (   10064 calls)

     Called by h_psi:
     h_psi:pot    :     49.73s CPU     54.65s WALL (  152122 calls)
     h_psi:calbec :      5.29s CPU      5.92s WALL (  152122 calls)
     vloc_psi     :     41.27s CPU     45.26s WALL (  152122 calls)
     add_vuspsi   :      2.94s CPU      3.22s WALL (  152122 calls)

     General routines
     calbec       :     11.38s CPU     12.69s WALL (  345336 calls)
     fft          :      0.58s CPU      0.63s WALL (    5239 calls)
     ffts         :      0.15s CPU      0.17s WALL (    2748 calls)
     fftw         :     48.19s CPU     52.86s WALL ( 1377568 calls)
     davcio       :      0.30s CPU      0.36s WALL (   79045 calls)

     Parallel routines
     fft_scatter  :     15.86s CPU     17.62s WALL ( 1385555 calls)

     PHONON       :  1m30.13s CPU     1m39.08s WALL

     INITIALIZATION: 
     phq_setup    :      0.06s CPU      0.06s WALL (       8 calls)
     phq_init     :      2.12s CPU      2.25s WALL (       8 calls)

     phq_init     :      2.12s CPU      2.25s WALL (       8 calls)
     set_drhoc    :      0.30s CPU      0.31s WALL (      24 calls)
     init_vloc    :      0.01s CPU      0.01s WALL (       8 calls)
     init_us_1    :      0.51s CPU      0.53s WALL (       8 calls)
     newd         :      0.03s CPU      0.03s WALL (       8 calls)
     dvanqq       :      0.25s CPU      0.26s WALL (       8 calls)
     drho         :      1.09s CPU      1.16s WALL (       8 calls)

     DYNAMICAL MATRIX:
     dynmat0      :      0.53s CPU      0.56s WALL (       8 calls)
     phqscf       :     79.34s CPU     87.15s WALL (       8 calls)
     dynmatrix    :      0.01s CPU      0.02s WALL (       8 calls)

     phqscf       :     79.34s CPU     87.15s WALL (       8 calls)
     solve_linter :     78.51s CPU     86.23s WALL (      32 calls)
     drhodv       :      0.56s CPU      0.62s WALL (      32 calls)

     dynmat0      :      0.53s CPU      0.56s WALL (       8 calls)
     dynmat_us    :      0.29s CPU      0.31s WALL (       8 calls)
     d2ionq       :      0.01s CPU      0.01s WALL (       8 calls)
     dynmatcc     :      0.22s CPU      0.23s WALL (       8 calls)

     dynmat_us    :      0.29s CPU      0.31s WALL (       8 calls)
     addusdynmat  :      0.00s CPU      0.00s WALL (       8 calls)

     phqscf       :     79.34s CPU     87.15s WALL (       8 calls)
     solve_linter :     78.51s CPU     86.23s WALL (      32 calls)

     solve_linter :     78.51s CPU     86.23s WALL (      32 calls)
     dvqpsi_us    :      1.76s CPU      1.96s WALL (    2508 calls)
     ortho        :      1.28s CPU      1.43s WALL (   15550 calls)
     cgsolve      :     61.67s CPU     67.87s WALL (   15550 calls)
     incdrhoscf   :      5.41s CPU      5.88s WALL (   15550 calls)
     addusddens   :      1.21s CPU      1.28s WALL (     228 calls)
     vpsifft      :      4.07s CPU      4.46s WALL (   12922 calls)
     dv_of_drho   :      0.25s CPU      0.26s WALL (     295 calls)
     mix_pot      :      0.06s CPU      0.07s WALL (     201 calls)
     psymdvscf    :      0.80s CPU      0.84s WALL (     196 calls)
     newdq        :      1.30s CPU      1.43s WALL (     201 calls)
     adddvscf     :      0.47s CPU      0.51s WALL (   13042 calls)
     drhodvus     :      0.00s CPU      0.00s WALL (      32 calls)

     dvqpsi_us    :      1.76s CPU      1.96s WALL (    2508 calls)
     dvqpsi_us_on :      0.83s CPU      0.92s WALL (    2508 calls)

     cgsolve      :     61.67s CPU     67.87s WALL (   15550 calls)
     ch_psi       :     59.04s CPU     64.85s WALL (  141262 calls)

     ch_psi       :     59.04s CPU     64.85s WALL (  141262 calls)
     h_psi        :     49.92s CPU     54.85s WALL (  152122 calls)
     last         :      9.84s CPU     10.91s WALL (  141262 calls)

     h_psi        :     49.92s CPU     54.85s WALL (  152122 calls)
     add_vuspsi   :      2.94s CPU      3.22s WALL (  152122 calls)

     incdrhoscf   :      5.41s CPU      5.88s WALL (   15550 calls)
     addusdbec    :      0.84s CPU      0.91s WALL (   17998 calls)

     drhodvus     :      0.00s CPU      0.00s WALL (      32 calls)

      General routines
     calbec       :     11.38s CPU     12.69s WALL (  345336 calls)
     fft          :      0.58s CPU      0.63s WALL (    5239 calls)
     ffts         :      0.15s CPU      0.17s WALL (    2748 calls)
     fftw         :     48.19s CPU     52.86s WALL ( 1377568 calls)
     davcio       :      0.30s CPU      0.36s WALL (   79045 calls)
     write_rec    :      0.21s CPU      0.23s WALL (     233 calls)


     PHONON       :  1m30.13s CPU     1m39.08s WALL


   This run was terminated on:  13: 4:11   9Nov2017            

=------------------------------------------------------------------------------=
   JOB DONE.
=------------------------------------------------------------------------------=
