
     Program PWSCF v.6.1 (svn rev. 13369) starts on 10Nov2017 at 10:31:20 

     This program is part of the open-source Quantum ESPRESSO suite
     for quantum simulation of materials; please cite
         "P. Giannozzi et al., J. Phys.:Condens. Matter 21 395502 (2009);
          URL http://www.quantum-espresso.org", 
     in publications or presentations arising from this work. More details at
     http://www.quantum-espresso.org/quote

     Parallel version (MPI), running on     4 processors
     R & G space division:  proc/nbgrp/npool/nimage =       4
     Waiting for input...
     Reading input from standard input
     Message from routine read_cards :
     DEPRECATED: no units specified in ATOMIC_POSITIONS card
     Message from routine read_cards :
     ATOMIC_POSITIONS: units set to alat

     Current dimensions of program PWSCF are:
     Max number of different atomic species (ntypx) = 10
     Max number of k-points (npk) =  40000
     Max angular momentum in pseudopotentials (lmaxx) =  3

     Subspace diagonalization in iterative solution of the eigenvalue problem:
     a serial algorithm will be used


     Parallelization info
     --------------------
     sticks:   dense  smooth     PW     G-vecs:    dense   smooth      PW
     Min         219     109     37                 4315     1545     301
     Max         220     110     38                 4316     1546     304
     Sum         877     439    151                17261     6183    1211



     bravais-lattice index     =            2
     lattice parameter (alat)  =      10.3280  a.u.
     unit-cell volume          =     275.4157 (a.u.)^3
     number of atoms/cell      =            2
     number of atomic types    =            1
     number of electrons       =         8.00
     number of Kohn-Sham states=            4
     kinetic-energy cutoff     =      30.0000  Ry
     charge density cutoff     =     240.0000  Ry
     convergence threshold     =      1.0E-08
     mixing beta               =       0.7000
     number of iterations used =            8  plain     mixing
     Exchange-correlation      = SLA  PW   PBE  PBE ( 1  4  3  4 0 0)

     celldm(1)=  10.328000  celldm(2)=   0.000000  celldm(3)=   0.000000
     celldm(4)=   0.000000  celldm(5)=   0.000000  celldm(6)=   0.000000

     crystal axes: (cart. coord. in units of alat)
               a(1) = (  -0.500000   0.000000   0.500000 )  
               a(2) = (   0.000000   0.500000   0.500000 )  
               a(3) = (  -0.500000   0.500000   0.000000 )  

     reciprocal axes: (cart. coord. in units 2 pi/alat)
               b(1) = ( -1.000000 -1.000000  1.000000 )  
               b(2) = (  1.000000  1.000000  1.000000 )  
               b(3) = ( -1.000000  1.000000 -1.000000 )  


     PseudoPot. # 1 for Si read from file:
     /home/max/quantum_espresso/qe-6.1/pseudo/si_pbe_v1.uspp.F.UPF.txt
     MD5 check sum: a056efeee980c13900f22a371efd63c1
     Pseudo is Ultrasoft + core correction, Zval =  4.0
     Generated by new atomic code, or converted to UPF format
     Using radial grid of  899 points,  6 beta functions with: 
                l(1) =   0
                l(2) =   0
                l(3) =   1
                l(4) =   1
                l(5) =   2
                l(6) =   2
     Q(r) pseudized with  8 coefficients,  rinner =    0.900   0.900   0.900
                                                       0.900   0.900

     atomic species   valence    mass     pseudopotential
        Si             4.00    28.08600     Si( 1.00)

     48 Sym. Ops., with inversion, found (24 have fractional translation)



   Cartesian axes

     site n.     atom                  positions (alat units)
         1           Si  tau(   1) = (   0.0000000   0.0000000   0.0000000  )
         2           Si  tau(   2) = (   0.2500000   0.2500000   0.2500000  )

     number of k points=    28
                       cart. coord. in units 2pi/alat
        k(    1) = (  -0.0833333   0.0833333   0.0833333), wk =   0.0185185
        k(    2) = (  -0.2500000   0.2500000  -0.0833333), wk =   0.0555556
        k(    3) = (  -0.4166667   0.4166667  -0.2500000), wk =   0.0555556
        k(    4) = (   0.4166667  -0.4166667   0.5833333), wk =   0.0555556
        k(    5) = (   0.2500000  -0.2500000   0.4166667), wk =   0.0555556
        k(    6) = (   0.0833333  -0.0833333   0.2500000), wk =   0.0555556
        k(    7) = (  -0.0833333   0.4166667   0.0833333), wk =   0.0555556
        k(    8) = (  -0.2500000   0.5833333  -0.0833333), wk =   0.1111111
        k(    9) = (   0.5833333  -0.2500000   0.7500000), wk =   0.1111111
        k(   10) = (   0.4166667  -0.0833333   0.5833333), wk =   0.1111111
        k(   11) = (   0.2500000   0.0833333   0.4166667), wk =   0.1111111
        k(   12) = (  -0.0833333   0.7500000   0.0833333), wk =   0.0555556
        k(   13) = (   0.7500000  -0.0833333   0.9166667), wk =   0.1111111
        k(   14) = (   0.5833333   0.0833333   0.7500000), wk =   0.1111111
        k(   15) = (   0.4166667   0.2500000   0.5833333), wk =   0.1111111
        k(   16) = (  -0.0833333  -0.9166667   0.0833333), wk =   0.0555556
        k(   17) = (  -0.2500000  -0.7500000  -0.0833333), wk =   0.1111111
        k(   18) = (  -0.0833333  -0.5833333   0.0833333), wk =   0.0555556
        k(   19) = (  -0.2500000   0.2500000   0.2500000), wk =   0.0185185
        k(   20) = (  -0.4166667   0.4166667   0.0833333), wk =   0.0555556
        k(   21) = (   0.4166667  -0.4166667   0.9166667), wk =   0.0555556
        k(   22) = (   0.2500000  -0.2500000   0.7500000), wk =   0.0555556
        k(   23) = (  -0.2500000   0.5833333   0.2500000), wk =   0.0555556
        k(   24) = (   0.5833333  -0.2500000   1.0833333), wk =   0.1111111
        k(   25) = (   0.4166667  -0.0833333   0.9166667), wk =   0.1111111
        k(   26) = (  -0.2500000  -1.0833333   0.2500000), wk =   0.0555556
        k(   27) = (  -0.4166667   0.4166667   0.4166667), wk =   0.0185185
        k(   28) = (   0.4166667  -0.4166667   1.2500000), wk =   0.0555556

     Dense  grid:    17261 G-vectors     FFT dimensions: (  40,  40,  40)

     Smooth grid:     6183 G-vectors     FFT dimensions: (  25,  25,  25)

     Estimated max dynamical RAM per process >       3.35MB

     Estimated total allocated dynamical RAM >      13.41MB

     Initial potential from superposition of free atoms

     starting charge    7.99866, renormalised to    8.00000
     Starting wfc are    8 randomized atomic wfcs

     total cpu time spent up to now is        0.5 secs

     per-process dynamical memory:     9.8 Mb

     Self-consistent Calculation

     iteration #  1     ecut=    30.00 Ry     beta=0.70
     Davidson diagonalization with overlap
     ethr =  1.00E-02,  avg # of iterations =  2.0

     Threshold (ethr) on eigenvalues was too large:
     Diagonalizing with lowered threshold

     Davidson diagonalization with overlap
     ethr =  6.79E-04,  avg # of iterations =  1.0

     total cpu time spent up to now is        0.9 secs

     total energy              =     -19.19123201 Ry
     Harris-Foulkes estimate   =     -19.20374176 Ry
     estimated scf accuracy    <       0.05378494 Ry

     iteration #  2     ecut=    30.00 Ry     beta=0.70
     Davidson diagonalization with overlap
     ethr =  6.72E-04,  avg # of iterations =  1.0

     total cpu time spent up to now is        1.2 secs

     total energy              =     -19.19299618 Ry
     Harris-Foulkes estimate   =     -19.19316506 Ry
     estimated scf accuracy    <       0.00244702 Ry

     iteration #  3     ecut=    30.00 Ry     beta=0.70
     Davidson diagonalization with overlap
     ethr =  3.06E-05,  avg # of iterations =  2.1

     total cpu time spent up to now is        1.5 secs

     total energy              =     -19.19332808 Ry
     Harris-Foulkes estimate   =     -19.19334113 Ry
     estimated scf accuracy    <       0.00004244 Ry

     iteration #  4     ecut=    30.00 Ry     beta=0.70
     Davidson diagonalization with overlap
     ethr =  5.30E-07,  avg # of iterations =  3.4

     total cpu time spent up to now is        2.5 secs

     total energy              =     -19.19336752 Ry
     Harris-Foulkes estimate   =     -19.19336836 Ry
     estimated scf accuracy    <       0.00000308 Ry

     iteration #  5     ecut=    30.00 Ry     beta=0.70
     Davidson diagonalization with overlap
     ethr =  3.85E-08,  avg # of iterations =  2.0

     total cpu time spent up to now is        2.8 secs

     End of self-consistent calculation

          k =-0.0833 0.0833 0.0833 (   749 PWs)   bands (ev):

    -5.7439   5.1365   5.8542   5.8542

          k =-0.2500 0.2500-0.0833 (   770 PWs)   bands (ev):

    -5.2737   3.0689   4.6355   5.6449

          k =-0.4167 0.4167-0.2500 (   766 PWs)   bands (ev):

    -4.1979   0.3408   4.1727   5.0156

          k = 0.4167-0.4167 0.5833 (   767 PWs)   bands (ev):

    -3.5133  -0.7847   4.2359   4.6407

          k = 0.2500-0.2500 0.4167 (   772 PWs)   bands (ev):

    -4.6031   1.1761   4.7016   4.7289

          k = 0.0833-0.0833 0.2500 (   769 PWs)   bands (ev):

    -5.5065   4.0702   5.2182   5.3973

          k =-0.0833 0.4167 0.0833 (   775 PWs)   bands (ev):

    -5.0357   2.8731   4.4794   4.4980

          k =-0.2500 0.5833-0.0833 (   767 PWs)   bands (ev):

    -4.1382   1.0519   3.1814   4.1153

          k = 0.5833-0.2500 0.7500 (   759 PWs)   bands (ev):

    -3.0419  -0.6691   2.5835   3.8924

          k = 0.4167-0.0833 0.5833 (   768 PWs)   bands (ev):

    -3.7503   0.3699   2.5472   4.3707

          k = 0.2500 0.0833 0.4167 (   769 PWs)   bands (ev):

    -4.8136   2.0504   3.8687   5.0274

          k =-0.0833 0.7500 0.0833 (   767 PWs)   bands (ev):

    -3.4358   0.2267   3.1483   3.4816

          k = 0.7500-0.0833 0.9167 (   755 PWs)   bands (ev):

    -2.2580  -1.0974   2.3214   3.0828

          k = 0.5833 0.0833 0.7500 (   754 PWs)   bands (ev):

    -2.6273  -0.7596   1.8439   3.6203

          k = 0.4167 0.2500 0.5833 (   765 PWs)   bands (ev):

    -3.6415  -0.2955   3.4691   4.4664

          k =-0.0833-0.9167 0.0833 (   764 PWs)   bands (ev):

    -2.3468  -1.1046   2.8826   3.2687

          k =-0.2500-0.7500-0.0833 (   765 PWs)   bands (ev):

    -3.2706   0.0074   2.6358   3.4188

          k =-0.0833-0.5833 0.0833 (   767 PWs)   bands (ev):

    -4.3404   1.5790   3.6844   3.8989

          k =-0.2500 0.2500 0.2500 (   769 PWs)   bands (ev):

    -5.0475   2.1038   5.2477   5.2477

          k =-0.4167 0.4167 0.0833 (   767 PWs)   bands (ev):

    -4.3781   1.1719   3.1455   5.0794

          k = 0.4167-0.4167 0.9167 (   769 PWs)   bands (ev):

    -3.2178  -0.2569   2.0561   4.3048

          k = 0.2500-0.2500 0.7500 (   763 PWs)   bands (ev):

    -3.1656  -0.3356   2.5257   3.8299

          k =-0.2500 0.5833 0.2500 (   771 PWs)   bands (ev):

    -3.9605   0.3762   3.5974   4.1982

          k = 0.5833-0.2500 1.0833 (   759 PWs)   bands (ev):

    -2.9737  -0.3740   2.1556   3.4180

          k = 0.4167-0.0833 0.9167 (   755 PWs)   bands (ev):

    -2.1552  -1.1051   1.9977   2.7615

          k =-0.2500-1.0833 0.2500 (   758 PWs)   bands (ev):

    -2.3633  -1.0083   1.8731   3.6378

          k =-0.4167 0.4167 0.4167 (   769 PWs)   bands (ev):

    -3.8752  -0.3903   4.8625   4.8625

          k = 0.4167-0.4167 1.2500 (   765 PWs)   bands (ev):

    -3.2806  -0.6927   3.0500   4.4295

     highest occupied level (ev):     5.8542

!    total energy              =     -19.19336792 Ry
     Harris-Foulkes estimate   =     -19.19336791 Ry
     estimated scf accuracy    <          9.6E-09 Ry

     The total energy is the sum of the following terms:

     one-electron contribution =       4.96303136 Ry
     hartree contribution      =       1.13244895 Ry
     xc contribution           =      -8.59853671 Ry
     ewald contribution        =     -16.69031153 Ry

     convergence has been achieved in   5 iterations

     Writing output data file silicon.10.328.save

     init_run     :      0.36s CPU      0.40s WALL (       1 calls)
     electrons    :      1.44s CPU      2.28s WALL (       1 calls)

     Called by init_run:
     wfcinit      :      0.07s CPU      0.09s WALL (       1 calls)
     potinit      :      0.03s CPU      0.03s WALL (       1 calls)

     Called by electrons:
     c_bands      :      0.88s CPU      1.57s WALL (       6 calls)
     sum_band     :      0.30s CPU      0.37s WALL (       6 calls)
     v_of_rho     :      0.14s CPU      0.17s WALL (       6 calls)
     newd         :      0.14s CPU      0.18s WALL (       6 calls)
     mix_rho      :      0.01s CPU      0.01s WALL (       6 calls)

     Called by c_bands:
     init_us_2    :      0.05s CPU      0.06s WALL (     364 calls)
     cegterg      :      0.76s CPU      1.41s WALL (     168 calls)

     Called by sum_band:
     sum_band:bec :      0.00s CPU      0.00s WALL (     168 calls)
     addusdens    :      0.14s CPU      0.17s WALL (       6 calls)

     Called by *egterg:
     h_psi        :      0.62s CPU      1.14s WALL (     517 calls)
     s_psi        :      0.04s CPU      0.05s WALL (     517 calls)
     g_psi        :      0.00s CPU      0.00s WALL (     321 calls)
     cdiaghg      :      0.04s CPU      0.07s WALL (     461 calls)

     Called by h_psi:
     h_psi:pot    :      0.62s CPU      1.14s WALL (     517 calls)
     h_psi:calbec :      0.07s CPU      0.15s WALL (     517 calls)
     vloc_psi     :      0.51s CPU      0.94s WALL (     517 calls)
     add_vuspsi   :      0.04s CPU      0.05s WALL (     517 calls)

     General routines
     calbec       :      0.09s CPU      0.17s WALL (     685 calls)
     fft          :      0.10s CPU      0.17s WALL (      96 calls)
     ffts         :      0.00s CPU      0.00s WALL (      12 calls)
     fftw         :      0.51s CPU      0.94s WALL (    4616 calls)
     interpolate  :      0.01s CPU      0.01s WALL (      12 calls)
     davcio       :      0.00s CPU      0.00s WALL (      28 calls)

     Parallel routines
     fft_scatter  :      0.31s CPU      0.77s WALL (    4724 calls)

     PWSCF        :     2.02s CPU         2.91s WALL


   This run was terminated on:  10:31:23  10Nov2017            

=------------------------------------------------------------------------------=
   JOB DONE.
=------------------------------------------------------------------------------=
