
     Program PHONON v.6.1 (svn rev. 13369) starts on 10Nov2017 at 15:54: 1 

     This program is part of the open-source Quantum ESPRESSO suite
     for quantum simulation of materials; please cite
         "P. Giannozzi et al., J. Phys.:Condens. Matter 21 395502 (2009);
          URL http://www.quantum-espresso.org", 
     in publications or presentations arising from this work. More details at
     http://www.quantum-espresso.org/quote

     Parallel version (MPI), running on     4 processors
     R & G space division:  proc/nbgrp/npool/nimage =       4

     Reading data from directory:
     ./silicon.10.326.save

   Info: using nr1, nr2, nr3 values from input

   Info: using nr1, nr2, nr3 values from input

     IMPORTANT: XC functional enforced from input :
     Exchange-correlation      = SLA  PW   PBE  PBE ( 1  4  3  4 0 0)
     Any further DFT definition will be discarded
     Please, verify this is what you really want


     Parallelization info
     --------------------
     sticks:   dense  smooth     PW     G-vecs:    dense   smooth      PW
     Min         219     109     37                 4315     1545     284
     Max         220     110     38                 4316     1546     285
     Sum         877     439    151                17261     6183    1139



     Dynamical matrices for ( 4, 4, 4)  uniform grid of q-points
     (   8q-points):
       N         xq(1)         xq(2)         xq(3) 
       1   0.000000000   0.000000000   0.000000000
       2  -0.250000000   0.250000000  -0.250000000
       3   0.500000000  -0.500000000   0.500000000
       4   0.000000000   0.500000000   0.000000000
       5   0.750000000  -0.250000000   0.750000000
       6   0.500000000   0.000000000   0.500000000
       7   0.000000000  -1.000000000   0.000000000
       8  -0.500000000  -1.000000000   0.000000000

     Calculation of q =    0.0000000   0.0000000   0.0000000

                                                                                

     bravais-lattice index     =            2
     lattice parameter (alat)  =      10.3260  a.u.
     unit-cell volume          =     275.2557 (a.u.)^3
     number of atoms/cell      =            2
     number of atomic types    =            1
     kinetic-energy cut-off    =      30.0000  Ry
     charge density cut-off    =     240.0000  Ry
     convergence threshold     =      1.0E-12
     beta                      =       0.7000
     number of iterations used =            4
     Exchange-correlation      = SLA  PW   PBE  PBE ( 1  4  3  4 0 0)


     celldm(1)=   10.32600  celldm(2)=    0.00000  celldm(3)=    0.00000
     celldm(4)=    0.00000  celldm(5)=    0.00000  celldm(6)=    0.00000

     crystal axes: (cart. coord. in units of alat)
               a(1) = ( -0.5000  0.0000  0.5000 )  
               a(2) = (  0.0000  0.5000  0.5000 )  
               a(3) = ( -0.5000  0.5000  0.0000 )  

     reciprocal axes: (cart. coord. in units 2 pi/alat)
               b(1) = ( -1.0000 -1.0000  1.0000 )  
               b(2) = (  1.0000  1.0000  1.0000 )  
               b(3) = ( -1.0000  1.0000 -1.0000 )  


     Atoms inside the unit cell: 

     Cartesian axes

     site n.  atom      mass           positions (alat units)
        1     Si  28.0860   tau(    1) = (    0.00000    0.00000    0.00000  )
        2     Si  28.0860   tau(    2) = (    0.25000    0.25000    0.25000  )

     Computing dynamical matrix for 
                    q = (   0.0000000   0.0000000   0.0000000 )

     49 Sym.Ops. (with q -> -q+G )


     G cutoff =  648.2100  (   4315 G-vectors)     FFT grid: ( 40, 40, 40)
     G cutoff =  324.1050  (   1546 G-vectors)  smooth grid: ( 25, 25, 25)
     number of k points=    10

     PseudoPot. # 1 for Si read from file:
     /home/s1333534/quantum_espresso/qe-6.1/pseudo/si_pbe_v1.uspp.F.UPF.txt
     MD5 check sum: a056efeee980c13900f22a371efd63c1
     Pseudo is Ultrasoft + core correction, Zval =  4.0
     Generated by new atomic code, or converted to UPF format
     Using radial grid of  899 points,  6 beta functions with: 
                l(1) =   0
                l(2) =   0
                l(3) =   1
                l(4) =   1
                l(5) =   2
                l(6) =   2
     Q(r) pseudized with  8 coefficients,  rinner =    0.900   0.900   0.900
                                                       0.900   0.900

     Mode symmetry, O_h (m-3m)  point group:


     Electric field:
     Dielectric constant
     Born effective charges in two ways 


     Atomic displacements:
     There are   2 irreducible representations

     Representation     1      3 modes -T_2g G_25' G_5+  To be done

     Representation     2      3 modes -T_1u G_15  G_4-  To be done



     Alpha used in Ewald sum =   2.5000
     PHONON       :     0.96s CPU         1.47s WALL


     Electric Fields Calculation

      iter #   1 total cpu time :     3.1 secs   av.it.:   5.7
      thresh= 1.000E-02 alpha_mix =  0.700 |ddv_scf|^2 =  9.706E-08

      iter #   2 total cpu time :     4.4 secs   av.it.:  11.9
      thresh= 3.115E-05 alpha_mix =  0.700 |ddv_scf|^2 =  5.698E-09

      iter #   3 total cpu time :     5.6 secs   av.it.:  11.7
      thresh= 7.549E-06 alpha_mix =  0.700 |ddv_scf|^2 =  3.794E-10

      iter #   4 total cpu time :     7.4 secs   av.it.:  10.6
      thresh= 1.948E-06 alpha_mix =  0.700 |ddv_scf|^2 =  2.483E-12

      iter #   5 total cpu time :     8.2 secs   av.it.:  11.2
      thresh= 1.576E-07 alpha_mix =  0.700 |ddv_scf|^2 =  2.487E-15

     End of electric fields calculation

          Dielectric constant in cartesian axis 

          (      13.951036352      -0.000000000       0.000000000 )
          (      -0.000000000      13.951036352       0.000000000 )
          (      -0.000000000      -0.000000000      13.951036352 )

          Effective charges (d Force / dE) in cartesian axis

           atom      1   Si 
      Ex  (       -0.03864        0.00000        0.00000 )
      Ey  (        0.00000       -0.03864        0.00000 )
      Ez  (        0.00000       -0.00000       -0.03864 )
           atom      2   Si 
      Ex  (       -0.03864        0.00000        0.00000 )
      Ey  (        0.00000       -0.03864       -0.00000 )
      Ez  (       -0.00000        0.00000       -0.03864 )


     Representation #  1 modes #   1  2  3

     Self-consistent Calculation

      iter #   1 total cpu time :    10.2 secs   av.it.:   5.1
      thresh= 1.000E-02 alpha_mix =  0.700 |ddv_scf|^2 =  1.715E-08

      iter #   2 total cpu time :    11.5 secs   av.it.:  11.8
      thresh= 1.309E-05 alpha_mix =  0.700 |ddv_scf|^2 =  7.020E-10

      iter #   3 total cpu time :    12.9 secs   av.it.:  11.3
      thresh= 2.650E-06 alpha_mix =  0.700 |ddv_scf|^2 =  4.775E-11

      iter #   4 total cpu time :    13.8 secs   av.it.:  10.4
      thresh= 6.910E-07 alpha_mix =  0.700 |ddv_scf|^2 =  1.175E-13

     End of self-consistent calculation

     Convergence has been achieved 


     Representation #  2 modes #   4  5  6

     Self-consistent Calculation

      iter #   1 total cpu time :    15.3 secs   av.it.:   5.2
      thresh= 1.000E-02 alpha_mix =  0.700 |ddv_scf|^2 =  1.353E-08

      iter #   2 total cpu time :    16.7 secs   av.it.:  11.7
      thresh= 1.163E-05 alpha_mix =  0.700 |ddv_scf|^2 =  7.964E-10

      iter #   3 total cpu time :    18.0 secs   av.it.:  11.4
      thresh= 2.822E-06 alpha_mix =  0.700 |ddv_scf|^2 =  4.935E-11

      iter #   4 total cpu time :    19.3 secs   av.it.:  11.5
      thresh= 7.025E-07 alpha_mix =  0.700 |ddv_scf|^2 =  1.901E-13

     End of self-consistent calculation

     Convergence has been achieved 

     Number of q in the star =    1
     List of q in the star:
          1   0.000000000   0.000000000   0.000000000

          Dielectric constant in cartesian axis 

          (      13.951036352      -0.000000000       0.000000000 )
          (      -0.000000000      13.951036352       0.000000000 )
          (      -0.000000000      -0.000000000      13.951036352 )

          Effective charges (d Force / dE) in cartesian axis

           atom      1   Si 
      Ex  (       -0.03864        0.00000        0.00000 )
      Ey  (        0.00000       -0.03864        0.00000 )
      Ez  (        0.00000       -0.00000       -0.03864 )
           atom      2   Si 
      Ex  (       -0.03864        0.00000        0.00000 )
      Ey  (        0.00000       -0.03864       -0.00000 )
      Ez  (       -0.00000        0.00000       -0.03864 )

          Effective charges (d P / du) in cartesian axis 

           atom      1   Si 
      Px  (       -0.07238        0.00000       -0.00000 )
      Py  (        0.00000       -0.07238        0.00000 )
      Pz  (        0.00000        0.00000       -0.07238 )
           atom      2   Si 
      Px  (       -0.07238        0.00000       -0.00000 )
      Py  (        0.00000       -0.07238        0.00000 )
      Pz  (       -0.00000       -0.00000       -0.07238 )

     Diagonalizing the dynamical matrix

     q = (    0.000000000   0.000000000   0.000000000 ) 

 **************************************************************************
     freq (    1) =      -0.476235 [THz] =     -15.885481 [cm-1]
     freq (    2) =      -0.476235 [THz] =     -15.885481 [cm-1]
     freq (    3) =      -0.476235 [THz] =     -15.885481 [cm-1]
     freq (    4) =      15.100142 [THz] =     503.686509 [cm-1]
     freq (    5) =      15.100142 [THz] =     503.686509 [cm-1]
     freq (    6) =      15.100142 [THz] =     503.686509 [cm-1]
 **************************************************************************

     Mode symmetry, O_h (m-3m)  point group:

     freq (  1 -  3) =        -15.9  [cm-1]   --> T_1u G_15  G_4- I  
     freq (  4 -  6) =        503.7  [cm-1]   --> T_2g G_25' G_5+ R  

     Calculation of q =   -0.2500000   0.2500000  -0.2500000

   Info: using nr1, nr2, nr3 values from input

   Info: using nr1, nr2, nr3 values from input

     Parallelization info
     --------------------
     sticks:   dense  smooth     PW     G-vecs:    dense   smooth      PW
     Min         218     109     37                 4315     1545     309
     Max         220     110     38                 4316     1546     312
     Sum         877     439    151                17261     6183    1243



     bravais-lattice index     =            2
     lattice parameter (alat)  =      10.3260  a.u.
     unit-cell volume          =     275.2557 (a.u.)^3
     number of atoms/cell      =            2
     number of atomic types    =            1
     number of electrons       =         8.00
     number of Kohn-Sham states=            4
     kinetic-energy cutoff     =      30.0000  Ry
     charge density cutoff     =     240.0000  Ry
     Exchange-correlation      = SLA  PW   PBE  PBE ( 1  4  3  4 0 0)

     celldm(1)=  10.326000  celldm(2)=   0.000000  celldm(3)=   0.000000
     celldm(4)=   0.000000  celldm(5)=   0.000000  celldm(6)=   0.000000

     crystal axes: (cart. coord. in units of alat)
               a(1) = (  -0.500000   0.000000   0.500000 )  
               a(2) = (   0.000000   0.500000   0.500000 )  
               a(3) = (  -0.500000   0.500000   0.000000 )  

     reciprocal axes: (cart. coord. in units 2 pi/alat)
               b(1) = ( -1.000000 -1.000000  1.000000 )  
               b(2) = (  1.000000  1.000000  1.000000 )  
               b(3) = ( -1.000000  1.000000 -1.000000 )  


     PseudoPot. # 1 for Si read from file:
     /home/s1333534/quantum_espresso/qe-6.1/pseudo/si_pbe_v1.uspp.F.UPF.txt
     MD5 check sum: a056efeee980c13900f22a371efd63c1
     Pseudo is Ultrasoft + core correction, Zval =  4.0
     Generated by new atomic code, or converted to UPF format
     Using radial grid of  899 points,  6 beta functions with: 
                l(1) =   0
                l(2) =   0
                l(3) =   1
                l(4) =   1
                l(5) =   2
                l(6) =   2
     Q(r) pseudized with  8 coefficients,  rinner =    0.900   0.900   0.900
                                                       0.900   0.900

     atomic species   valence    mass     pseudopotential
        Si             4.00    28.08600     Si( 1.00)

     48 Sym. Ops., with inversion, found



   Cartesian axes

     site n.     atom                  positions (alat units)
         1           Si  tau(   1) = (   0.0000000   0.0000000   0.0000000  )
         2           Si  tau(   2) = (   0.2500000   0.2500000   0.2500000  )

     number of k points=   120

     Number of k-points >= 100: set verbosity='high' to print them.

     Dense  grid:    17261 G-vectors     FFT dimensions: (  40,  40,  40)

     Smooth grid:     6183 G-vectors     FFT dimensions: (  25,  25,  25)

     Estimated max dynamical RAM per process >       1.78MB

     Estimated total allocated dynamical RAM >       7.14MB

     The potential is recalculated from file :
     ./_ph0/silicon.10.326.save/charge-density.dat

     Starting wfc are    8 atomic wfcs

     Band Structure Calculation
     Davidson diagonalization with overlap

     ethr =  1.25E-10,  avg # of iterations = 12.2

     total cpu time spent up to now is        1.4 secs

     End of band structure calculation

     Number of k-points >= 100: set verbosity='high' to print the bands.

     highest occupied level (ev):     5.7181

     Writing output data file silicon.10.326.save

                                                                                

     bravais-lattice index     =            2
     lattice parameter (alat)  =      10.3260  a.u.
     unit-cell volume          =     275.2557 (a.u.)^3
     number of atoms/cell      =            2
     number of atomic types    =            1
     kinetic-energy cut-off    =      30.0000  Ry
     charge density cut-off    =     240.0000  Ry
     convergence threshold     =      1.0E-12
     beta                      =       0.7000
     number of iterations used =            4
     Exchange-correlation      = SLA  PW   PBE  PBE ( 1  4  3  4 0 0)


     celldm(1)=   10.32600  celldm(2)=    0.00000  celldm(3)=    0.00000
     celldm(4)=    0.00000  celldm(5)=    0.00000  celldm(6)=    0.00000

     crystal axes: (cart. coord. in units of alat)
               a(1) = ( -0.5000  0.0000  0.5000 )  
               a(2) = (  0.0000  0.5000  0.5000 )  
               a(3) = ( -0.5000  0.5000  0.0000 )  

     reciprocal axes: (cart. coord. in units 2 pi/alat)
               b(1) = ( -1.0000 -1.0000  1.0000 )  
               b(2) = (  1.0000  1.0000  1.0000 )  
               b(3) = ( -1.0000  1.0000 -1.0000 )  


     Atoms inside the unit cell: 

     Cartesian axes

     site n.  atom      mass           positions (alat units)
        1     Si  28.0860   tau(    1) = (    0.00000    0.00000    0.00000  )
        2     Si  28.0860   tau(    2) = (    0.25000    0.25000    0.25000  )

     Computing dynamical matrix for 
                    q = (  -0.2500000   0.2500000  -0.2500000 )

      6 Sym.Ops. (no q -> -q+G )


     G cutoff =  648.2100  (   4315 G-vectors)     FFT grid: ( 40, 40, 40)
     G cutoff =  324.1050  (   1546 G-vectors)  smooth grid: ( 25, 25, 25)
     number of k points=   120

     PseudoPot. # 1 for Si read from file:
     /home/s1333534/quantum_espresso/qe-6.1/pseudo/si_pbe_v1.uspp.F.UPF.txt
     MD5 check sum: a056efeee980c13900f22a371efd63c1
     Pseudo is Ultrasoft + core correction, Zval =  4.0
     Generated by new atomic code, or converted to UPF format
     Using radial grid of  899 points,  6 beta functions with: 
                l(1) =   0
                l(2) =   0
                l(3) =   1
                l(4) =   1
                l(5) =   2
                l(6) =   2
     Q(r) pseudized with  8 coefficients,  rinner =    0.900   0.900   0.900
                                                       0.900   0.900

     Mode symmetry, C_3v (3m)   point group:


     Atomic displacements:
     There are   4 irreducible representations

     Representation     1      1 modes -A_1  L_1  To be done

     Representation     2      1 modes -A_1  L_1  To be done

     Representation     3      2 modes -E    L_3  To be done

     Representation     4      2 modes -E    L_3  To be done



     Alpha used in Ewald sum =   2.5000
     PHONON       :    12.42s CPU        25.69s WALL



     Representation #  1 mode #   1

     Self-consistent Calculation

      iter #   1 total cpu time :    26.4 secs   av.it.:   5.9
      thresh= 1.000E-02 alpha_mix =  0.700 |ddv_scf|^2 =  3.114E-04

      iter #   2 total cpu time :    27.3 secs   av.it.:   9.3
      thresh= 1.765E-03 alpha_mix =  0.700 |ddv_scf|^2 =  4.741E-03

      iter #   3 total cpu time :    28.0 secs   av.it.:   7.1
      thresh= 6.886E-03 alpha_mix =  0.700 |ddv_scf|^2 =  1.958E-07

      iter #   4 total cpu time :    29.1 secs   av.it.:   9.7
      thresh= 4.425E-05 alpha_mix =  0.700 |ddv_scf|^2 =  1.283E-08

      iter #   5 total cpu time :    30.0 secs   av.it.:   9.7
      thresh= 1.133E-05 alpha_mix =  0.700 |ddv_scf|^2 =  2.400E-10

      iter #   6 total cpu time :    30.8 secs   av.it.:   9.9
      thresh= 1.549E-06 alpha_mix =  0.700 |ddv_scf|^2 =  5.678E-10

      iter #   7 total cpu time :    31.6 secs   av.it.:   7.8
      thresh= 2.383E-06 alpha_mix =  0.700 |ddv_scf|^2 =  3.713E-11

      iter #   8 total cpu time :    32.5 secs   av.it.:   9.4
      thresh= 6.094E-07 alpha_mix =  0.700 |ddv_scf|^2 =  4.131E-13

     End of self-consistent calculation

     Convergence has been achieved 


     Representation #  2 mode #   2

     Self-consistent Calculation

      iter #   1 total cpu time :    33.8 secs   av.it.:   5.9
      thresh= 1.000E-02 alpha_mix =  0.700 |ddv_scf|^2 =  3.114E-04

      iter #   2 total cpu time :    35.0 secs   av.it.:   9.3
      thresh= 1.765E-03 alpha_mix =  0.700 |ddv_scf|^2 =  4.741E-03

      iter #   3 total cpu time :    35.7 secs   av.it.:   7.1
      thresh= 6.886E-03 alpha_mix =  0.700 |ddv_scf|^2 =  1.958E-07

      iter #   4 total cpu time :    36.5 secs   av.it.:   9.7
      thresh= 4.425E-05 alpha_mix =  0.700 |ddv_scf|^2 =  1.283E-08

      iter #   5 total cpu time :    37.7 secs   av.it.:   9.7
      thresh= 1.133E-05 alpha_mix =  0.700 |ddv_scf|^2 =  2.400E-10

      iter #   6 total cpu time :    38.6 secs   av.it.:   9.9
      thresh= 1.549E-06 alpha_mix =  0.700 |ddv_scf|^2 =  5.678E-10

      iter #   7 total cpu time :    39.4 secs   av.it.:   7.8
      thresh= 2.383E-06 alpha_mix =  0.700 |ddv_scf|^2 =  3.713E-11

      iter #   8 total cpu time :    40.0 secs   av.it.:   9.4
      thresh= 6.094E-07 alpha_mix =  0.700 |ddv_scf|^2 =  4.131E-13

     End of self-consistent calculation

     Convergence has been achieved 


     Representation #  3 modes #   3  4

     Self-consistent Calculation

      iter #   1 total cpu time :    41.1 secs   av.it.:   5.2
      thresh= 1.000E-02 alpha_mix =  0.700 |ddv_scf|^2 =  4.825E-08

      iter #   2 total cpu time :    42.4 secs   av.it.:  11.6
      thresh= 2.197E-05 alpha_mix =  0.700 |ddv_scf|^2 =  3.101E-09

      iter #   3 total cpu time :    43.8 secs   av.it.:  11.2
      thresh= 5.569E-06 alpha_mix =  0.700 |ddv_scf|^2 =  1.640E-10

      iter #   4 total cpu time :    45.1 secs   av.it.:  11.1
      thresh= 1.281E-06 alpha_mix =  0.700 |ddv_scf|^2 =  6.240E-13

     End of self-consistent calculation

     Convergence has been achieved 


     Representation #  4 modes #   5  6

     Self-consistent Calculation

      iter #   1 total cpu time :    46.5 secs   av.it.:   5.2
      thresh= 1.000E-02 alpha_mix =  0.700 |ddv_scf|^2 =  4.826E-08

      iter #   2 total cpu time :    48.0 secs   av.it.:  11.7
      thresh= 2.197E-05 alpha_mix =  0.700 |ddv_scf|^2 =  3.100E-09

      iter #   3 total cpu time :    49.4 secs   av.it.:  11.4
      thresh= 5.568E-06 alpha_mix =  0.700 |ddv_scf|^2 =  1.639E-10

      iter #   4 total cpu time :    50.6 secs   av.it.:  11.2
      thresh= 1.280E-06 alpha_mix =  0.700 |ddv_scf|^2 =  6.273E-13

     End of self-consistent calculation

     Convergence has been achieved 

     Number of q in the star =    8
     List of q in the star:
          1  -0.250000000   0.250000000  -0.250000000
          2   0.250000000  -0.250000000  -0.250000000
          3   0.250000000  -0.250000000   0.250000000
          4   0.250000000   0.250000000   0.250000000
          5  -0.250000000  -0.250000000  -0.250000000
          6  -0.250000000  -0.250000000   0.250000000
          7  -0.250000000   0.250000000   0.250000000
          8   0.250000000   0.250000000  -0.250000000

     Diagonalizing the dynamical matrix

     q = (   -0.250000000   0.250000000  -0.250000000 ) 

 **************************************************************************
     freq (    1) =       2.781358 [THz] =      92.776110 [cm-1]
     freq (    2) =       2.781358 [THz] =      92.776110 [cm-1]
     freq (    3) =       6.744946 [THz] =     224.987184 [cm-1]
     freq (    4) =      14.251075 [THz] =     475.364706 [cm-1]
     freq (    5) =      14.527713 [THz] =     484.592346 [cm-1]
     freq (    6) =      14.527713 [THz] =     484.592346 [cm-1]
 **************************************************************************

     Mode symmetry, C_3v (3m)   point group:

     freq (  1 -  2) =         92.8  [cm-1]   --> E    L_3           
     freq (  3 -  3) =        225.0  [cm-1]   --> A_1  L_1           
     freq (  4 -  4) =        475.4  [cm-1]   --> A_1  L_1           
     freq (  5 -  6) =        484.6  [cm-1]   --> E    L_3           

     Calculation of q =    0.5000000  -0.5000000   0.5000000

   Info: using nr1, nr2, nr3 values from input

   Info: using nr1, nr2, nr3 values from input

     Parallelization info
     --------------------
     sticks:   dense  smooth     PW     G-vecs:    dense   smooth      PW
     Min         219     109     40                 4315     1545     351
     Max         220     110     41                 4316     1546     354
     Sum         877     439    163                17261     6183    1411



     bravais-lattice index     =            2
     lattice parameter (alat)  =      10.3260  a.u.
     unit-cell volume          =     275.2557 (a.u.)^3
     number of atoms/cell      =            2
     number of atomic types    =            1
     number of electrons       =         8.00
     number of Kohn-Sham states=            4
     kinetic-energy cutoff     =      30.0000  Ry
     charge density cutoff     =     240.0000  Ry
     Exchange-correlation      = SLA  PW   PBE  PBE ( 1  4  3  4 0 0)

     celldm(1)=  10.326000  celldm(2)=   0.000000  celldm(3)=   0.000000
     celldm(4)=   0.000000  celldm(5)=   0.000000  celldm(6)=   0.000000

     crystal axes: (cart. coord. in units of alat)
               a(1) = (  -0.500000   0.000000   0.500000 )  
               a(2) = (   0.000000   0.500000   0.500000 )  
               a(3) = (  -0.500000   0.500000   0.000000 )  

     reciprocal axes: (cart. coord. in units 2 pi/alat)
               b(1) = ( -1.000000 -1.000000  1.000000 )  
               b(2) = (  1.000000  1.000000  1.000000 )  
               b(3) = ( -1.000000  1.000000 -1.000000 )  


     PseudoPot. # 1 for Si read from file:
     /home/s1333534/quantum_espresso/qe-6.1/pseudo/si_pbe_v1.uspp.F.UPF.txt
     MD5 check sum: a056efeee980c13900f22a371efd63c1
     Pseudo is Ultrasoft + core correction, Zval =  4.0
     Generated by new atomic code, or converted to UPF format
     Using radial grid of  899 points,  6 beta functions with: 
                l(1) =   0
                l(2) =   0
                l(3) =   1
                l(4) =   1
                l(5) =   2
                l(6) =   2
     Q(r) pseudized with  8 coefficients,  rinner =    0.900   0.900   0.900
                                                       0.900   0.900

     atomic species   valence    mass     pseudopotential
        Si             4.00    28.08600     Si( 1.00)

     48 Sym. Ops., with inversion, found



   Cartesian axes

     site n.     atom                  positions (alat units)
         1           Si  tau(   1) = (   0.0000000   0.0000000   0.0000000  )
         2           Si  tau(   2) = (   0.2500000   0.2500000   0.2500000  )

     number of k points=    60
                       cart. coord. in units 2pi/alat
        k(    1) = (  -0.1250000   0.1250000   0.1250000), wk =   0.0468750
        k(    2) = (   0.3750000  -0.3750000   0.6250000), wk =   0.0000000
        k(    3) = (  -0.3750000   0.3750000  -0.1250000), wk =   0.0468750
        k(    4) = (   0.1250000  -0.1250000   0.3750000), wk =   0.0000000
        k(    5) = (   0.3750000  -0.3750000   0.6250000), wk =   0.0468750
        k(    6) = (   0.8750000  -0.8750000   1.1250000), wk =   0.0000000
        k(    7) = (   0.1250000  -0.1250000   0.3750000), wk =   0.0468750
        k(    8) = (   0.6250000  -0.6250000   0.8750000), wk =   0.0000000
        k(    9) = (  -0.1250000   0.6250000   0.1250000), wk =   0.0937500
        k(   10) = (   0.3750000   0.1250000   0.6250000), wk =   0.0000000
        k(   11) = (   0.6250000  -0.1250000   0.8750000), wk =   0.0937500
        k(   12) = (   1.1250000  -0.6250000   1.3750000), wk =   0.0000000
        k(   13) = (   0.3750000   0.1250000   0.6250000), wk =   0.0937500
        k(   14) = (   0.8750000  -0.3750000   1.1250000), wk =   0.0000000
        k(   15) = (  -0.1250000  -0.8750000   0.1250000), wk =   0.0937500
        k(   16) = (   0.3750000  -1.3750000   0.6250000), wk =   0.0000000
        k(   17) = (  -0.3750000   0.3750000   0.3750000), wk =   0.0468750
        k(   18) = (   0.1250000  -0.1250000   0.8750000), wk =   0.0000000
        k(   19) = (   0.3750000  -0.3750000   1.1250000), wk =   0.0468750
        k(   20) = (   0.8750000  -0.8750000   1.6250000), wk =   0.0000000
        k(   21) = (   0.1250000  -0.1250000   0.1250000), wk =   0.0156250
        k(   22) = (   0.6250000  -0.6250000   0.6250000), wk =   0.0000000
        k(   23) = (  -0.3750000  -0.3750000  -0.1250000), wk =   0.0937500
        k(   24) = (   0.1250000  -0.8750000   0.3750000), wk =   0.0000000
        k(   25) = (  -0.1250000  -0.3750000   0.3750000), wk =   0.0468750
        k(   26) = (   0.3750000  -0.8750000   0.8750000), wk =   0.0000000
        k(   27) = (   0.3750000   0.3750000   0.6250000), wk =   0.0937500
        k(   28) = (   0.8750000  -0.1250000   1.1250000), wk =   0.0000000
        k(   29) = (   0.6250000   0.3750000  -0.3750000), wk =   0.0468750
        k(   30) = (   1.1250000  -0.1250000   0.1250000), wk =   0.0000000
        k(   31) = (   0.1250000   0.1250000   0.3750000), wk =   0.0937500
        k(   32) = (   0.6250000  -0.3750000   0.8750000), wk =   0.0000000
        k(   33) = (   0.3750000   0.1250000  -0.1250000), wk =   0.0468750
        k(   34) = (   0.8750000  -0.3750000   0.3750000), wk =   0.0000000
        k(   35) = (  -0.1250000  -0.6250000  -0.1250000), wk =   0.0468750
        k(   36) = (   0.3750000  -1.1250000   0.3750000), wk =   0.0000000
        k(   37) = (   0.1250000  -0.6250000   0.1250000), wk =   0.0468750
        k(   38) = (   0.6250000  -1.1250000   0.6250000), wk =   0.0000000
        k(   39) = (   0.6250000   0.1250000   0.8750000), wk =   0.0937500
        k(   40) = (   1.1250000  -0.3750000   1.3750000), wk =   0.0000000
        k(   41) = (  -0.8750000   0.1250000   0.6250000), wk =   0.0937500
        k(   42) = (  -0.3750000  -0.3750000   1.1250000), wk =   0.0000000
        k(   43) = (   0.8750000   0.1250000  -0.6250000), wk =   0.0937500
        k(   44) = (   1.3750000  -0.3750000  -0.1250000), wk =   0.0000000
        k(   45) = (   0.3750000  -0.1250000   0.6250000), wk =   0.0937500
        k(   46) = (   0.8750000  -0.6250000   1.1250000), wk =   0.0000000
        k(   47) = (  -0.6250000  -0.1250000   0.3750000), wk =   0.0937500
        k(   48) = (  -0.1250000  -0.6250000   0.8750000), wk =   0.0000000
        k(   49) = (   0.6250000  -0.1250000  -0.3750000), wk =   0.0937500
        k(   50) = (   1.1250000  -0.6250000   0.1250000), wk =   0.0000000
        k(   51) = (  -0.1250000   0.8750000  -0.1250000), wk =   0.0468750
        k(   52) = (   0.3750000   0.3750000   0.3750000), wk =   0.0000000
        k(   53) = (   0.1250000   0.8750000   0.1250000), wk =   0.0468750
        k(   54) = (   0.6250000   0.3750000   0.6250000), wk =   0.0000000
        k(   55) = (   0.3750000  -0.3750000   0.3750000), wk =   0.0156250
        k(   56) = (   0.8750000  -0.8750000   0.8750000), wk =   0.0000000
        k(   57) = (   0.3750000   0.3750000   1.1250000), wk =   0.0937500
        k(   58) = (   0.8750000  -0.1250000   1.6250000), wk =   0.0000000
        k(   59) = (   1.1250000   0.3750000  -0.3750000), wk =   0.0468750
        k(   60) = (   1.6250000  -0.1250000   0.1250000), wk =   0.0000000

     Dense  grid:    17261 G-vectors     FFT dimensions: (  40,  40,  40)

     Smooth grid:     6183 G-vectors     FFT dimensions: (  25,  25,  25)

     Estimated max dynamical RAM per process >       1.78MB

     Estimated total allocated dynamical RAM >       7.14MB

     The potential is recalculated from file :
     ./_ph0/silicon.10.326.save/charge-density.dat

     Starting wfc are    8 atomic wfcs

     Band Structure Calculation
     Davidson diagonalization with overlap

     ethr =  1.25E-10,  avg # of iterations = 12.2

     total cpu time spent up to now is        3.1 secs

     End of band structure calculation

          k =-0.1250 0.1250 0.1250 (   764 PWs)   bands (ev):

    -5.6299   4.4090   5.7181   5.7181

          k = 0.3750-0.3750 0.6250 (   763 PWs)   bands (ev):

    -3.4599  -0.6679   3.7510   4.4649

          k =-0.3750 0.3750-0.1250 (   767 PWs)   bands (ev):

    -4.6017   1.4137   3.7294   5.2376

          k = 0.1250-0.1250 0.3750 (   768 PWs)   bands (ev):

    -5.1013   2.7922   4.7085   4.7736

          k = 0.3750-0.3750 0.6250 (   763 PWs)   bands (ev):

    -3.4599  -0.6679   3.7510   4.4649

          k = 0.8750-0.8750 1.1250 (   764 PWs)   bands (ev):

    -5.6299   4.4090   5.7181   5.7181

          k = 0.1250-0.1250 0.3750 (   768 PWs)   bands (ev):

    -5.1013   2.7922   4.7085   4.7736

          k = 0.6250-0.6250 0.8750 (   767 PWs)   bands (ev):

    -4.6017   1.4137   3.7294   5.2376

          k =-0.1250 0.6250 0.1250 (   766 PWs)   bands (ev):

    -4.0684   1.0813   3.3799   3.8333

          k = 0.3750 0.1250 0.6250 (   766 PWs)   bands (ev):

    -3.6521   0.2059   2.7375   4.1083

          k = 0.6250-0.1250 0.8750 (   755 PWs)   bands (ev):

    -2.4258  -0.8828   2.0228   3.1013

          k = 1.1250-0.6250 1.3750 (   767 PWs)   bands (ev):

    -4.6017   1.4137   3.7294   5.2376

          k = 0.3750 0.1250 0.6250 (   766 PWs)   bands (ev):

    -3.6521   0.2059   2.7375   4.1083

          k = 0.8750-0.3750 1.1250 (   766 PWs)   bands (ev):

    -4.0684   1.0813   3.3799   3.8333

          k =-0.1250-0.8750 0.1250 (   762 PWs)   bands (ev):

    -2.5943  -0.7851   2.6339   3.3659

          k = 0.3750-1.3750 0.6250 (   763 PWs)   bands (ev):

    -3.4599  -0.6679   3.7510   4.4649

          k =-0.3750 0.3750 0.3750 (   763 PWs)   bands (ev):

    -4.1680   0.1210   4.9302   4.9302

          k = 0.1250-0.1250 0.8750 (   762 PWs)   bands (ev):

    -2.5943  -0.7851   2.6339   3.3659

          k = 0.3750-0.3750 1.1250 (   763 PWs)   bands (ev):

    -2.9635  -0.5813   2.0819   4.1473

          k = 0.8750-0.8750 1.6250 (   766 PWs)   bands (ev):

    -4.0684   1.0813   3.3799   3.8333

          k = 0.1250-0.1250 0.1250 (   764 PWs)   bands (ev):

    -5.6299   4.4090   5.7181   5.7181

          k = 0.6250-0.6250 0.6250 (   763 PWs)   bands (ev):

    -4.1680   0.1210   4.9302   4.9302

          k =-0.3750-0.3750-0.1250 (   767 PWs)   bands (ev):

    -4.6017   1.4137   3.7294   5.2376

          k = 0.1250-0.8750 0.3750 (   755 PWs)   bands (ev):

    -2.4258  -0.8828   2.0228   3.1013

          k =-0.1250-0.3750 0.3750 (   767 PWs)   bands (ev):

    -4.6017   1.4137   3.7294   5.2376

          k = 0.3750-0.8750 0.8750 (   766 PWs)   bands (ev):

    -4.0684   1.0813   3.3799   3.8333

          k = 0.3750 0.3750 0.6250 (   763 PWs)   bands (ev):

    -3.4599  -0.6679   3.7510   4.4649

          k = 0.8750-0.1250 1.1250 (   762 PWs)   bands (ev):

    -2.5943  -0.7851   2.6339   3.3659

          k = 0.6250 0.3750-0.3750 (   763 PWs)   bands (ev):

    -3.4599  -0.6679   3.7510   4.4649

          k = 1.1250-0.1250 0.1250 (   762 PWs)   bands (ev):

    -2.5943  -0.7851   2.6339   3.3659

          k = 0.1250 0.1250 0.3750 (   768 PWs)   bands (ev):

    -5.1013   2.7922   4.7085   4.7736

          k = 0.6250-0.3750 0.8750 (   766 PWs)   bands (ev):

    -3.6521   0.2059   2.7375   4.1083

          k = 0.3750 0.1250-0.1250 (   768 PWs)   bands (ev):

    -5.1013   2.7922   4.7085   4.7736

          k = 0.8750-0.3750 0.3750 (   763 PWs)   bands (ev):

    -2.9635  -0.5813   2.0819   4.1473

          k =-0.1250-0.6250-0.1250 (   766 PWs)   bands (ev):

    -4.0684   1.0813   3.3799   3.8333

          k = 0.3750-1.1250 0.3750 (   763 PWs)   bands (ev):

    -2.9635  -0.5813   2.0819   4.1473

          k = 0.1250-0.6250 0.1250 (   766 PWs)   bands (ev):

    -4.0684   1.0813   3.3799   3.8333

          k = 0.6250-1.1250 0.6250 (   767 PWs)   bands (ev):

    -4.6017   1.4137   3.7294   5.2376

          k = 0.6250 0.1250 0.8750 (   755 PWs)   bands (ev):

    -2.4258  -0.8828   2.0228   3.1013

          k = 1.1250-0.3750 1.3750 (   766 PWs)   bands (ev):

    -3.6521   0.2059   2.7375   4.1083

          k =-0.8750 0.1250 0.6250 (   755 PWs)   bands (ev):

    -2.4258  -0.8828   2.0228   3.1013

          k =-0.3750-0.3750 1.1250 (   763 PWs)   bands (ev):

    -2.9635  -0.5813   2.0819   4.1473

          k = 0.8750 0.1250-0.6250 (   755 PWs)   bands (ev):

    -2.4258  -0.8828   2.0228   3.1013

          k = 1.3750-0.3750-0.1250 (   766 PWs)   bands (ev):

    -3.6521   0.2059   2.7375   4.1083

          k = 0.3750-0.1250 0.6250 (   766 PWs)   bands (ev):

    -3.6521   0.2059   2.7375   4.1083

          k = 0.8750-0.6250 1.1250 (   768 PWs)   bands (ev):

    -5.1013   2.7922   4.7085   4.7736

          k =-0.6250-0.1250 0.3750 (   766 PWs)   bands (ev):

    -3.6521   0.2059   2.7375   4.1083

          k =-0.1250-0.6250 0.8750 (   755 PWs)   bands (ev):

    -2.4258  -0.8828   2.0228   3.1013

          k = 0.6250-0.1250-0.3750 (   766 PWs)   bands (ev):

    -3.6521   0.2059   2.7375   4.1083

          k = 1.1250-0.6250 0.1250 (   755 PWs)   bands (ev):

    -2.4258  -0.8828   2.0228   3.1013

          k =-0.1250 0.8750-0.1250 (   762 PWs)   bands (ev):

    -2.5943  -0.7851   2.6339   3.3659

          k = 0.3750 0.3750 0.3750 (   763 PWs)   bands (ev):

    -4.1680   0.1210   4.9302   4.9302

          k = 0.1250 0.8750 0.1250 (   762 PWs)   bands (ev):

    -2.5943  -0.7851   2.6339   3.3659

          k = 0.6250 0.3750 0.6250 (   763 PWs)   bands (ev):

    -3.4599  -0.6679   3.7510   4.4649

          k = 0.3750-0.3750 0.3750 (   763 PWs)   bands (ev):

    -4.1680   0.1210   4.9302   4.9302

          k = 0.8750-0.8750 0.8750 (   764 PWs)   bands (ev):

    -5.6299   4.4090   5.7181   5.7181

          k = 0.3750 0.3750 1.1250 (   763 PWs)   bands (ev):

    -2.9635  -0.5813   2.0819   4.1473

          k = 0.8750-0.1250 1.6250 (   755 PWs)   bands (ev):

    -2.4258  -0.8828   2.0228   3.1013

          k = 1.1250 0.3750-0.3750 (   763 PWs)   bands (ev):

    -2.9635  -0.5813   2.0819   4.1473

          k = 1.6250-0.1250 0.1250 (   768 PWs)   bands (ev):

    -5.1013   2.7922   4.7085   4.7736

     highest occupied level (ev):     5.7181

     Writing output data file silicon.10.326.save

                                                                                

     bravais-lattice index     =            2
     lattice parameter (alat)  =      10.3260  a.u.
     unit-cell volume          =     275.2557 (a.u.)^3
     number of atoms/cell      =            2
     number of atomic types    =            1
     kinetic-energy cut-off    =      30.0000  Ry
     charge density cut-off    =     240.0000  Ry
     convergence threshold     =      1.0E-12
     beta                      =       0.7000
     number of iterations used =            4
     Exchange-correlation      = SLA  PW   PBE  PBE ( 1  4  3  4 0 0)


     celldm(1)=   10.32600  celldm(2)=    0.00000  celldm(3)=    0.00000
     celldm(4)=    0.00000  celldm(5)=    0.00000  celldm(6)=    0.00000

     crystal axes: (cart. coord. in units of alat)
               a(1) = ( -0.5000  0.0000  0.5000 )  
               a(2) = (  0.0000  0.5000  0.5000 )  
               a(3) = ( -0.5000  0.5000  0.0000 )  

     reciprocal axes: (cart. coord. in units 2 pi/alat)
               b(1) = ( -1.0000 -1.0000  1.0000 )  
               b(2) = (  1.0000  1.0000  1.0000 )  
               b(3) = ( -1.0000  1.0000 -1.0000 )  


     Atoms inside the unit cell: 

     Cartesian axes

     site n.  atom      mass           positions (alat units)
        1     Si  28.0860   tau(    1) = (    0.00000    0.00000    0.00000  )
        2     Si  28.0860   tau(    2) = (    0.25000    0.25000    0.25000  )

     Computing dynamical matrix for 
                    q = (   0.5000000  -0.5000000   0.5000000 )

     13 Sym.Ops. (with q -> -q+G )


     G cutoff =  648.2100  (   4316 G-vectors)     FFT grid: ( 40, 40, 40)
     G cutoff =  324.1050  (   1546 G-vectors)  smooth grid: ( 25, 25, 25)
     number of k points=    60

     PseudoPot. # 1 for Si read from file:
     /home/s1333534/quantum_espresso/qe-6.1/pseudo/si_pbe_v1.uspp.F.UPF.txt
     MD5 check sum: a056efeee980c13900f22a371efd63c1
     Pseudo is Ultrasoft + core correction, Zval =  4.0
     Generated by new atomic code, or converted to UPF format
     Using radial grid of  899 points,  6 beta functions with: 
                l(1) =   0
                l(2) =   0
                l(3) =   1
                l(4) =   1
                l(5) =   2
                l(6) =   2
     Q(r) pseudized with  8 coefficients,  rinner =    0.900   0.900   0.900
                                                       0.900   0.900


     Atomic displacements:
     There are   4 irreducible representations

     Representation     1      1 modes -  To be done

     Representation     2      1 modes -  To be done

     Representation     3      2 modes -  To be done

     Representation     4      2 modes -  To be done



     Alpha used in Ewald sum =   2.5000
     PHONON       :    30.35s CPU        53.00s WALL



     Representation #  1 mode #   1

     Self-consistent Calculation

      iter #   1 total cpu time :    53.3 secs   av.it.:   5.1
      thresh= 1.000E-02 alpha_mix =  0.700 |ddv_scf|^2 =  3.055E-06

      iter #   2 total cpu time :    53.7 secs   av.it.:  10.1
      thresh= 1.748E-04 alpha_mix =  0.700 |ddv_scf|^2 =  2.800E-06

      iter #   3 total cpu time :    54.1 secs   av.it.:   9.4
      thresh= 1.673E-04 alpha_mix =  0.700 |ddv_scf|^2 =  1.684E-09

      iter #   4 total cpu time :    54.6 secs   av.it.:   9.6
      thresh= 4.103E-06 alpha_mix =  0.700 |ddv_scf|^2 =  1.640E-11

      iter #   5 total cpu time :    55.0 secs   av.it.:   9.5
      thresh= 4.050E-07 alpha_mix =  0.700 |ddv_scf|^2 =  2.230E-13

     End of self-consistent calculation

     Convergence has been achieved 


     Representation #  2 mode #   2

     Self-consistent Calculation

      iter #   1 total cpu time :    55.6 secs   av.it.:   6.0
      thresh= 1.000E-02 alpha_mix =  0.700 |ddv_scf|^2 =  4.344E-05

      iter #   2 total cpu time :    56.1 secs   av.it.:  10.0
      thresh= 6.591E-04 alpha_mix =  0.700 |ddv_scf|^2 =  1.351E-04

      iter #   3 total cpu time :    56.5 secs   av.it.:   8.9
      thresh= 1.162E-03 alpha_mix =  0.700 |ddv_scf|^2 =  9.702E-09

      iter #   4 total cpu time :    56.9 secs   av.it.:  10.1
      thresh= 9.850E-06 alpha_mix =  0.700 |ddv_scf|^2 =  4.929E-10

      iter #   5 total cpu time :    57.4 secs   av.it.:  10.4
      thresh= 2.220E-06 alpha_mix =  0.700 |ddv_scf|^2 =  1.488E-11

      iter #   6 total cpu time :    57.8 secs   av.it.:   9.9
      thresh= 3.858E-07 alpha_mix =  0.700 |ddv_scf|^2 =  1.107E-13

     End of self-consistent calculation

     Convergence has been achieved 


     Representation #  3 modes #   3  4

     Self-consistent Calculation

      iter #   1 total cpu time :    58.5 secs   av.it.:   5.1
      thresh= 1.000E-02 alpha_mix =  0.700 |ddv_scf|^2 =  1.962E-08

      iter #   2 total cpu time :    59.3 secs   av.it.:  11.1
      thresh= 1.401E-05 alpha_mix =  0.700 |ddv_scf|^2 =  1.156E-09

      iter #   3 total cpu time :    60.1 secs   av.it.:  10.8
      thresh= 3.400E-06 alpha_mix =  0.700 |ddv_scf|^2 =  3.860E-11

      iter #   4 total cpu time :    60.8 secs   av.it.:  10.8
      thresh= 6.213E-07 alpha_mix =  0.700 |ddv_scf|^2 =  3.150E-13

     End of self-consistent calculation

     Convergence has been achieved 


     Representation #  4 modes #   5  6

     Self-consistent Calculation

      iter #   1 total cpu time :    61.5 secs   av.it.:   5.2
      thresh= 1.000E-02 alpha_mix =  0.700 |ddv_scf|^2 =  1.005E-07

      iter #   2 total cpu time :    62.4 secs   av.it.:  11.2
      thresh= 3.170E-05 alpha_mix =  0.700 |ddv_scf|^2 =  8.061E-09

      iter #   3 total cpu time :    63.2 secs   av.it.:  11.2
      thresh= 8.978E-06 alpha_mix =  0.700 |ddv_scf|^2 =  2.120E-10

      iter #   4 total cpu time :    64.0 secs   av.it.:  10.1
      thresh= 1.456E-06 alpha_mix =  0.700 |ddv_scf|^2 =  3.830E-13

     End of self-consistent calculation

     Convergence has been achieved 

     Number of q in the star =    4
     List of q in the star:
          1   0.500000000  -0.500000000   0.500000000
          2   0.500000000   0.500000000   0.500000000
          3  -0.500000000   0.500000000   0.500000000
          4   0.500000000   0.500000000  -0.500000000

     Diagonalizing the dynamical matrix

     q = (    0.500000000  -0.500000000   0.500000000 ) 

 **************************************************************************
     freq (    1) =       3.290959 [THz] =     109.774571 [cm-1]
     freq (    2) =       3.290959 [THz] =     109.774571 [cm-1]
     freq (    3) =      11.105757 [THz] =     370.448173 [cm-1]
     freq (    4) =      12.008503 [THz] =     400.560550 [cm-1]
     freq (    5) =      14.319642 [THz] =     477.651835 [cm-1]
     freq (    6) =      14.319642 [THz] =     477.651835 [cm-1]
 **************************************************************************

     Calculation of q =    0.0000000   0.5000000   0.0000000

   Info: using nr1, nr2, nr3 values from input

   Info: using nr1, nr2, nr3 values from input

     Parallelization info
     --------------------
     sticks:   dense  smooth     PW     G-vecs:    dense   smooth      PW
     Min         218     109     37                 4315     1545     309
     Max         220     110     38                 4316     1546     312
     Sum         877     439    151                17261     6183    1243



     bravais-lattice index     =            2
     lattice parameter (alat)  =      10.3260  a.u.
     unit-cell volume          =     275.2557 (a.u.)^3
     number of atoms/cell      =            2
     number of atomic types    =            1
     number of electrons       =         8.00
     number of Kohn-Sham states=            4
     kinetic-energy cutoff     =      30.0000  Ry
     charge density cutoff     =     240.0000  Ry
     Exchange-correlation      = SLA  PW   PBE  PBE ( 1  4  3  4 0 0)

     celldm(1)=  10.326000  celldm(2)=   0.000000  celldm(3)=   0.000000
     celldm(4)=   0.000000  celldm(5)=   0.000000  celldm(6)=   0.000000

     crystal axes: (cart. coord. in units of alat)
               a(1) = (  -0.500000   0.000000   0.500000 )  
               a(2) = (   0.000000   0.500000   0.500000 )  
               a(3) = (  -0.500000   0.500000   0.000000 )  

     reciprocal axes: (cart. coord. in units 2 pi/alat)
               b(1) = ( -1.000000 -1.000000  1.000000 )  
               b(2) = (  1.000000  1.000000  1.000000 )  
               b(3) = ( -1.000000  1.000000 -1.000000 )  


     PseudoPot. # 1 for Si read from file:
     /home/s1333534/quantum_espresso/qe-6.1/pseudo/si_pbe_v1.uspp.F.UPF.txt
     MD5 check sum: a056efeee980c13900f22a371efd63c1
     Pseudo is Ultrasoft + core correction, Zval =  4.0
     Generated by new atomic code, or converted to UPF format
     Using radial grid of  899 points,  6 beta functions with: 
                l(1) =   0
                l(2) =   0
                l(3) =   1
                l(4) =   1
                l(5) =   2
                l(6) =   2
     Q(r) pseudized with  8 coefficients,  rinner =    0.900   0.900   0.900
                                                       0.900   0.900

     atomic species   valence    mass     pseudopotential
        Si             4.00    28.08600     Si( 1.00)

     48 Sym. Ops., with inversion, found



   Cartesian axes

     site n.     atom                  positions (alat units)
         1           Si  tau(   1) = (   0.0000000   0.0000000   0.0000000  )
         2           Si  tau(   2) = (   0.2500000   0.2500000   0.2500000  )

     number of k points=    80
                       cart. coord. in units 2pi/alat
        k(    1) = (  -0.1250000   0.1250000   0.1250000), wk =   0.0312500
        k(    2) = (  -0.1250000   0.6250000   0.1250000), wk =   0.0000000
        k(    3) = (  -0.3750000   0.3750000  -0.1250000), wk =   0.0625000
        k(    4) = (  -0.3750000   0.8750000  -0.1250000), wk =   0.0000000
        k(    5) = (   0.3750000  -0.3750000   0.6250000), wk =   0.0625000
        k(    6) = (   0.3750000   0.1250000   0.6250000), wk =   0.0000000
        k(    7) = (   0.1250000  -0.1250000   0.3750000), wk =   0.0625000
        k(    8) = (   0.1250000   0.3750000   0.3750000), wk =   0.0000000
        k(    9) = (  -0.1250000   0.6250000   0.1250000), wk =   0.0312500
        k(   10) = (  -0.1250000   1.1250000   0.1250000), wk =   0.0000000
        k(   11) = (   0.6250000  -0.1250000   0.8750000), wk =   0.0625000
        k(   12) = (   0.6250000   0.3750000   0.8750000), wk =   0.0000000
        k(   13) = (   0.3750000   0.1250000   0.6250000), wk =   0.0625000
        k(   14) = (   0.3750000   0.6250000   0.6250000), wk =   0.0000000
        k(   15) = (  -0.1250000  -0.8750000   0.1250000), wk =   0.0312500
        k(   16) = (  -0.1250000  -0.3750000   0.1250000), wk =   0.0000000
        k(   17) = (  -0.3750000   0.3750000   0.3750000), wk =   0.0312500
        k(   18) = (  -0.3750000   0.8750000   0.3750000), wk =   0.0000000
        k(   19) = (   0.3750000  -0.3750000   1.1250000), wk =   0.0625000
        k(   20) = (   0.3750000   0.1250000   1.1250000), wk =   0.0000000
        k(   21) = (  -0.1250000  -0.1250000   0.1250000), wk =   0.0312500
        k(   22) = (  -0.1250000   0.3750000   0.1250000), wk =   0.0000000
        k(   23) = (   0.1250000  -0.3750000   0.3750000), wk =   0.0625000
        k(   24) = (   0.1250000   0.1250000   0.3750000), wk =   0.0000000
        k(   25) = (   0.3750000  -0.1250000   0.3750000), wk =   0.0312500
        k(   26) = (   0.3750000   0.3750000   0.3750000), wk =   0.0000000
        k(   27) = (   0.3750000   0.1250000   0.3750000), wk =   0.0312500
        k(   28) = (   0.3750000   0.6250000   0.3750000), wk =   0.0000000
        k(   29) = (  -0.6250000   0.3750000  -0.3750000), wk =   0.0625000
        k(   30) = (  -0.6250000   0.8750000  -0.3750000), wk =   0.0000000
        k(   31) = (  -0.3750000   0.6250000  -0.3750000), wk =   0.0312500
        k(   32) = (  -0.3750000   1.1250000  -0.3750000), wk =   0.0000000
        k(   33) = (  -0.3750000  -0.6250000  -0.3750000), wk =   0.0312500
        k(   34) = (  -0.3750000  -0.1250000  -0.3750000), wk =   0.0000000
        k(   35) = (  -0.3750000   0.1250000  -0.1250000), wk =   0.0625000
        k(   36) = (  -0.3750000   0.6250000  -0.1250000), wk =   0.0000000
        k(   37) = (  -0.1250000   0.3750000  -0.1250000), wk =   0.0312500
        k(   38) = (  -0.1250000   0.8750000  -0.1250000), wk =   0.0000000
        k(   39) = (  -0.1250000  -0.3750000  -0.1250000), wk =   0.0312500
        k(   40) = (  -0.1250000   0.1250000  -0.1250000), wk =   0.0000000
        k(   41) = (  -0.1250000  -0.6250000   0.1250000), wk =   0.0312500
        k(   42) = (  -0.1250000  -0.1250000   0.1250000), wk =   0.0000000
        k(   43) = (   0.6250000  -0.1250000  -0.1250000), wk =   0.0625000
        k(   44) = (   0.6250000   0.3750000  -0.1250000), wk =   0.0000000
        k(   45) = (   0.6250000   0.1250000   0.1250000), wk =   0.0625000
        k(   46) = (   0.6250000   0.6250000   0.1250000), wk =   0.0000000
        k(   47) = (  -0.8750000   0.1250000  -0.6250000), wk =   0.0625000
        k(   48) = (  -0.8750000   0.6250000  -0.6250000), wk =   0.0000000
        k(   49) = (  -0.1250000   0.6250000  -0.8750000), wk =   0.0625000
        k(   50) = (  -0.1250000   1.1250000  -0.8750000), wk =   0.0000000
        k(   51) = (  -0.1250000   0.8750000  -0.6250000), wk =   0.0625000
        k(   52) = (  -0.1250000   1.3750000  -0.6250000), wk =   0.0000000
        k(   53) = (  -0.1250000  -0.8750000  -0.6250000), wk =   0.0625000
        k(   54) = (  -0.1250000  -0.3750000  -0.6250000), wk =   0.0000000
        k(   55) = (   0.8750000  -0.6250000   0.1250000), wk =   0.0625000
        k(   56) = (   0.8750000  -0.1250000   0.1250000), wk =   0.0000000
        k(   57) = (  -0.6250000  -0.1250000  -0.3750000), wk =   0.0625000
        k(   58) = (  -0.6250000   0.3750000  -0.3750000), wk =   0.0000000
        k(   59) = (   0.1250000   0.3750000  -0.6250000), wk =   0.0625000
        k(   60) = (   0.1250000   0.8750000  -0.6250000), wk =   0.0000000
        k(   61) = (   0.1250000   0.6250000  -0.3750000), wk =   0.0625000
        k(   62) = (   0.1250000   1.1250000  -0.3750000), wk =   0.0000000
        k(   63) = (   0.1250000  -0.6250000  -0.3750000), wk =   0.0625000
        k(   64) = (   0.1250000  -0.1250000  -0.3750000), wk =   0.0000000
        k(   65) = (   0.6250000  -0.3750000  -0.1250000), wk =   0.0625000
        k(   66) = (   0.6250000   0.1250000  -0.1250000), wk =   0.0000000
        k(   67) = (  -0.1250000   0.8750000   0.1250000), wk =   0.0312500
        k(   68) = (  -0.1250000   1.3750000   0.1250000), wk =   0.0000000
        k(   69) = (  -0.8750000  -0.1250000  -0.1250000), wk =   0.0625000
        k(   70) = (  -0.8750000   0.3750000  -0.1250000), wk =   0.0000000
        k(   71) = (  -0.8750000   0.1250000   0.1250000), wk =   0.0625000
        k(   72) = (  -0.8750000   0.6250000   0.1250000), wk =   0.0000000
        k(   73) = (  -0.3750000  -0.3750000   0.3750000), wk =   0.0312500
        k(   74) = (  -0.3750000   0.1250000   0.3750000), wk =   0.0000000
        k(   75) = (  -1.1250000   0.3750000  -0.3750000), wk =   0.0625000
        k(   76) = (  -1.1250000   0.8750000  -0.3750000), wk =   0.0000000
        k(   77) = (  -0.3750000   1.1250000  -0.3750000), wk =   0.0312500
        k(   78) = (  -0.3750000   1.6250000  -0.3750000), wk =   0.0000000
        k(   79) = (  -0.3750000  -1.1250000  -0.3750000), wk =   0.0312500
        k(   80) = (  -0.3750000  -0.6250000  -0.3750000), wk =   0.0000000

     Dense  grid:    17261 G-vectors     FFT dimensions: (  40,  40,  40)

     Smooth grid:     6183 G-vectors     FFT dimensions: (  25,  25,  25)

     Estimated max dynamical RAM per process >       1.78MB

     Estimated total allocated dynamical RAM >       7.14MB

     The potential is recalculated from file :
     ./_ph0/silicon.10.326.save/charge-density.dat

     Starting wfc are    8 atomic wfcs

     Band Structure Calculation
     Davidson diagonalization with overlap

     ethr =  1.25E-10,  avg # of iterations = 12.2

     total cpu time spent up to now is        4.3 secs

     End of band structure calculation

          k =-0.1250 0.1250 0.1250 (   764 PWs)   bands (ev):

    -5.6299   4.4090   5.7181   5.7181

          k =-0.1250 0.6250 0.1250 (   766 PWs)   bands (ev):

    -4.0684   1.0813   3.3799   3.8333

          k =-0.3750 0.3750-0.1250 (   767 PWs)   bands (ev):

    -4.6017   1.4137   3.7294   5.2376

          k =-0.3750 0.8750-0.1250 (   755 PWs)   bands (ev):

    -2.4258  -0.8828   2.0228   3.1013

          k = 0.3750-0.3750 0.6250 (   763 PWs)   bands (ev):

    -3.4599  -0.6679   3.7510   4.4649

          k = 0.3750 0.1250 0.6250 (   766 PWs)   bands (ev):

    -3.6521   0.2059   2.7375   4.1083

          k = 0.1250-0.1250 0.3750 (   768 PWs)   bands (ev):

    -5.1013   2.7922   4.7085   4.7736

          k = 0.1250 0.3750 0.3750 (   767 PWs)   bands (ev):

    -4.6017   1.4137   3.7294   5.2376

          k =-0.1250 0.6250 0.1250 (   766 PWs)   bands (ev):

    -4.0684   1.0813   3.3799   3.8333

          k =-0.1250 1.1250 0.1250 (   762 PWs)   bands (ev):

    -2.5943  -0.7851   2.6339   3.3659

          k = 0.6250-0.1250 0.8750 (   755 PWs)   bands (ev):

    -2.4258  -0.8828   2.0228   3.1013

          k = 0.6250 0.3750 0.8750 (   766 PWs)   bands (ev):

    -3.6521   0.2059   2.7375   4.1083

          k = 0.3750 0.1250 0.6250 (   766 PWs)   bands (ev):

    -3.6521   0.2059   2.7375   4.1083

          k = 0.3750 0.6250 0.6250 (   763 PWs)   bands (ev):

    -3.4599  -0.6679   3.7510   4.4649

          k =-0.1250-0.8750 0.1250 (   762 PWs)   bands (ev):

    -2.5943  -0.7851   2.6339   3.3659

          k =-0.1250-0.3750 0.1250 (   768 PWs)   bands (ev):

    -5.1013   2.7922   4.7085   4.7736

          k =-0.3750 0.3750 0.3750 (   763 PWs)   bands (ev):

    -4.1680   0.1210   4.9302   4.9302

          k =-0.3750 0.8750 0.3750 (   763 PWs)   bands (ev):

    -2.9635  -0.5813   2.0819   4.1473

          k = 0.3750-0.3750 1.1250 (   763 PWs)   bands (ev):

    -2.9635  -0.5813   2.0819   4.1473

          k = 0.3750 0.1250 1.1250 (   755 PWs)   bands (ev):

    -2.4258  -0.8828   2.0228   3.1013

          k =-0.1250-0.1250 0.1250 (   764 PWs)   bands (ev):

    -5.6299   4.4090   5.7181   5.7181

          k =-0.1250 0.3750 0.1250 (   768 PWs)   bands (ev):

    -5.1013   2.7922   4.7085   4.7736

          k = 0.1250-0.3750 0.3750 (   767 PWs)   bands (ev):

    -4.6017   1.4137   3.7294   5.2376

          k = 0.1250 0.1250 0.3750 (   768 PWs)   bands (ev):

    -5.1013   2.7922   4.7085   4.7736

          k = 0.3750-0.1250 0.3750 (   767 PWs)   bands (ev):

    -4.6017   1.4137   3.7294   5.2376

          k = 0.3750 0.3750 0.3750 (   763 PWs)   bands (ev):

    -4.1680   0.1210   4.9302   4.9302

          k = 0.3750 0.1250 0.3750 (   767 PWs)   bands (ev):

    -4.6017   1.4137   3.7294   5.2376

          k = 0.3750 0.6250 0.3750 (   763 PWs)   bands (ev):

    -3.4599  -0.6679   3.7510   4.4649

          k =-0.6250 0.3750-0.3750 (   763 PWs)   bands (ev):

    -3.4599  -0.6679   3.7510   4.4649

          k =-0.6250 0.8750-0.3750 (   766 PWs)   bands (ev):

    -3.6521   0.2059   2.7375   4.1083

          k =-0.3750 0.6250-0.3750 (   763 PWs)   bands (ev):

    -3.4599  -0.6679   3.7510   4.4649

          k =-0.3750 1.1250-0.3750 (   763 PWs)   bands (ev):

    -2.9635  -0.5813   2.0819   4.1473

          k =-0.3750-0.6250-0.3750 (   763 PWs)   bands (ev):

    -3.4599  -0.6679   3.7510   4.4649

          k =-0.3750-0.1250-0.3750 (   767 PWs)   bands (ev):

    -4.6017   1.4137   3.7294   5.2376

          k =-0.3750 0.1250-0.1250 (   768 PWs)   bands (ev):

    -5.1013   2.7922   4.7085   4.7736

          k =-0.3750 0.6250-0.1250 (   766 PWs)   bands (ev):

    -3.6521   0.2059   2.7375   4.1083

          k =-0.1250 0.3750-0.1250 (   768 PWs)   bands (ev):

    -5.1013   2.7922   4.7085   4.7736

          k =-0.1250 0.8750-0.1250 (   762 PWs)   bands (ev):

    -2.5943  -0.7851   2.6339   3.3659

          k =-0.1250-0.3750-0.1250 (   768 PWs)   bands (ev):

    -5.1013   2.7922   4.7085   4.7736

          k =-0.1250 0.1250-0.1250 (   764 PWs)   bands (ev):

    -5.6299   4.4090   5.7181   5.7181

          k =-0.1250-0.6250 0.1250 (   766 PWs)   bands (ev):

    -4.0684   1.0813   3.3799   3.8333

          k =-0.1250-0.1250 0.1250 (   764 PWs)   bands (ev):

    -5.6299   4.4090   5.7181   5.7181

          k = 0.6250-0.1250-0.1250 (   766 PWs)   bands (ev):

    -4.0684   1.0813   3.3799   3.8333

          k = 0.6250 0.3750-0.1250 (   766 PWs)   bands (ev):

    -3.6521   0.2059   2.7375   4.1083

          k = 0.6250 0.1250 0.1250 (   766 PWs)   bands (ev):

    -4.0684   1.0813   3.3799   3.8333

          k = 0.6250 0.6250 0.1250 (   763 PWs)   bands (ev):

    -2.9635  -0.5813   2.0819   4.1473

          k =-0.8750 0.1250-0.6250 (   755 PWs)   bands (ev):

    -2.4258  -0.8828   2.0228   3.1013

          k =-0.8750 0.6250-0.6250 (   767 PWs)   bands (ev):

    -4.6017   1.4137   3.7294   5.2376

          k =-0.1250 0.6250-0.8750 (   755 PWs)   bands (ev):

    -2.4258  -0.8828   2.0228   3.1013

          k =-0.1250 1.1250-0.8750 (   762 PWs)   bands (ev):

    -2.5943  -0.7851   2.6339   3.3659

          k =-0.1250 0.8750-0.6250 (   755 PWs)   bands (ev):

    -2.4258  -0.8828   2.0228   3.1013

          k =-0.1250 1.3750-0.6250 (   763 PWs)   bands (ev):

    -2.9635  -0.5813   2.0819   4.1473

          k =-0.1250-0.8750-0.6250 (   755 PWs)   bands (ev):

    -2.4258  -0.8828   2.0228   3.1013

          k =-0.1250-0.3750-0.6250 (   766 PWs)   bands (ev):

    -3.6521   0.2059   2.7375   4.1083

          k = 0.8750-0.6250 0.1250 (   755 PWs)   bands (ev):

    -2.4258  -0.8828   2.0228   3.1013

          k = 0.8750-0.1250 0.1250 (   762 PWs)   bands (ev):

    -2.5943  -0.7851   2.6339   3.3659

          k =-0.6250-0.1250-0.3750 (   766 PWs)   bands (ev):

    -3.6521   0.2059   2.7375   4.1083

          k =-0.6250 0.3750-0.3750 (   763 PWs)   bands (ev):

    -3.4599  -0.6679   3.7510   4.4649

          k = 0.1250 0.3750-0.6250 (   766 PWs)   bands (ev):

    -3.6521   0.2059   2.7375   4.1083

          k = 0.1250 0.8750-0.6250 (   755 PWs)   bands (ev):

    -2.4258  -0.8828   2.0228   3.1013

          k = 0.1250 0.6250-0.3750 (   766 PWs)   bands (ev):

    -3.6521   0.2059   2.7375   4.1083

          k = 0.1250 1.1250-0.3750 (   755 PWs)   bands (ev):

    -2.4258  -0.8828   2.0228   3.1013

          k = 0.1250-0.6250-0.3750 (   766 PWs)   bands (ev):

    -3.6521   0.2059   2.7375   4.1083

          k = 0.1250-0.1250-0.3750 (   768 PWs)   bands (ev):

    -5.1013   2.7922   4.7085   4.7736

          k = 0.6250-0.3750-0.1250 (   766 PWs)   bands (ev):

    -3.6521   0.2059   2.7375   4.1083

          k = 0.6250 0.1250-0.1250 (   766 PWs)   bands (ev):

    -4.0684   1.0813   3.3799   3.8333

          k =-0.1250 0.8750 0.1250 (   762 PWs)   bands (ev):

    -2.5943  -0.7851   2.6339   3.3659

          k =-0.1250 1.3750 0.1250 (   766 PWs)   bands (ev):

    -4.0684   1.0813   3.3799   3.8333

          k =-0.8750-0.1250-0.1250 (   762 PWs)   bands (ev):

    -2.5943  -0.7851   2.6339   3.3659

          k =-0.8750 0.3750-0.1250 (   755 PWs)   bands (ev):

    -2.4258  -0.8828   2.0228   3.1013

          k =-0.8750 0.1250 0.1250 (   762 PWs)   bands (ev):

    -2.5943  -0.7851   2.6339   3.3659

          k =-0.8750 0.6250 0.1250 (   755 PWs)   bands (ev):

    -2.4258  -0.8828   2.0228   3.1013

          k =-0.3750-0.3750 0.3750 (   763 PWs)   bands (ev):

    -4.1680   0.1210   4.9302   4.9302

          k =-0.3750 0.1250 0.3750 (   767 PWs)   bands (ev):

    -4.6017   1.4137   3.7294   5.2376

          k =-1.1250 0.3750-0.3750 (   763 PWs)   bands (ev):

    -2.9635  -0.5813   2.0819   4.1473

          k =-1.1250 0.8750-0.3750 (   766 PWs)   bands (ev):

    -4.0684   1.0813   3.3799   3.8333

          k =-0.3750 1.1250-0.3750 (   763 PWs)   bands (ev):

    -2.9635  -0.5813   2.0819   4.1473

          k =-0.3750 1.6250-0.3750 (   763 PWs)   bands (ev):

    -4.1680   0.1210   4.9302   4.9302

          k =-0.3750-1.1250-0.3750 (   763 PWs)   bands (ev):

    -2.9635  -0.5813   2.0819   4.1473

          k =-0.3750-0.6250-0.3750 (   763 PWs)   bands (ev):

    -3.4599  -0.6679   3.7510   4.4649

     highest occupied level (ev):     5.7181

     Writing output data file silicon.10.326.save

                                                                                

     bravais-lattice index     =            2
     lattice parameter (alat)  =      10.3260  a.u.
     unit-cell volume          =     275.2557 (a.u.)^3
     number of atoms/cell      =            2
     number of atomic types    =            1
     kinetic-energy cut-off    =      30.0000  Ry
     charge density cut-off    =     240.0000  Ry
     convergence threshold     =      1.0E-12
     beta                      =       0.7000
     number of iterations used =            4
     Exchange-correlation      = SLA  PW   PBE  PBE ( 1  4  3  4 0 0)


     celldm(1)=   10.32600  celldm(2)=    0.00000  celldm(3)=    0.00000
     celldm(4)=    0.00000  celldm(5)=    0.00000  celldm(6)=    0.00000

     crystal axes: (cart. coord. in units of alat)
               a(1) = ( -0.5000  0.0000  0.5000 )  
               a(2) = (  0.0000  0.5000  0.5000 )  
               a(3) = ( -0.5000  0.5000  0.0000 )  

     reciprocal axes: (cart. coord. in units 2 pi/alat)
               b(1) = ( -1.0000 -1.0000  1.0000 )  
               b(2) = (  1.0000  1.0000  1.0000 )  
               b(3) = ( -1.0000  1.0000 -1.0000 )  


     Atoms inside the unit cell: 

     Cartesian axes

     site n.  atom      mass           positions (alat units)
        1     Si  28.0860   tau(    1) = (    0.00000    0.00000    0.00000  )
        2     Si  28.0860   tau(    2) = (    0.25000    0.25000    0.25000  )

     Computing dynamical matrix for 
                    q = (   0.0000000   0.5000000   0.0000000 )

      8 Sym.Ops. (no q -> -q+G )


     G cutoff =  648.2100  (   4315 G-vectors)     FFT grid: ( 40, 40, 40)
     G cutoff =  324.1050  (   1546 G-vectors)  smooth grid: ( 25, 25, 25)
     number of k points=    80

     PseudoPot. # 1 for Si read from file:
     /home/s1333534/quantum_espresso/qe-6.1/pseudo/si_pbe_v1.uspp.F.UPF.txt
     MD5 check sum: a056efeee980c13900f22a371efd63c1
     Pseudo is Ultrasoft + core correction, Zval =  4.0
     Generated by new atomic code, or converted to UPF format
     Using radial grid of  899 points,  6 beta functions with: 
                l(1) =   0
                l(2) =   0
                l(3) =   1
                l(4) =   1
                l(5) =   2
                l(6) =   2
     Q(r) pseudized with  8 coefficients,  rinner =    0.900   0.900   0.900
                                                       0.900   0.900

     Mode symmetry, C_4v (4mm)  point group:


     Atomic displacements:
     There are   4 irreducible representations

     Representation     1      1 modes -A_1  G_1 D_1  To be done

     Representation     2      1 modes -B_2  G_4 D_2'  To be done

     Representation     3      2 modes -E    G_5 D_5  To be done

     Representation     4      2 modes -E    G_5 D_5  To be done



     Alpha used in Ewald sum =   2.5000
     PHONON       :  0m40.58s CPU     1m 6.46s WALL



     Representation #  1 mode #   1

     Self-consistent Calculation

      iter #   1 total cpu time :    66.8 secs   av.it.:   6.2
      thresh= 1.000E-02 alpha_mix =  0.700 |ddv_scf|^2 =  3.745E-04

      iter #   2 total cpu time :    67.4 secs   av.it.:   9.5
      thresh= 1.935E-03 alpha_mix =  0.700 |ddv_scf|^2 =  4.966E-03

      iter #   3 total cpu time :    67.9 secs   av.it.:   7.5
      thresh= 7.047E-03 alpha_mix =  0.700 |ddv_scf|^2 =  7.496E-09

      iter #   4 total cpu time :    68.4 secs   av.it.:  10.2
      thresh= 8.658E-06 alpha_mix =  0.700 |ddv_scf|^2 =  7.101E-10

      iter #   5 total cpu time :    68.9 secs   av.it.:   9.8
      thresh= 2.665E-06 alpha_mix =  0.700 |ddv_scf|^2 =  8.165E-11

      iter #   6 total cpu time :    69.3 secs   av.it.:   9.5
      thresh= 9.036E-07 alpha_mix =  0.700 |ddv_scf|^2 =  2.597E-13

     End of self-consistent calculation

     Convergence has been achieved 


     Representation #  2 mode #   2

     Self-consistent Calculation

      iter #   1 total cpu time :    69.8 secs   av.it.:   5.1
      thresh= 1.000E-02 alpha_mix =  0.700 |ddv_scf|^2 =  5.914E-07

      iter #   2 total cpu time :    70.3 secs   av.it.:  10.6
      thresh= 7.690E-05 alpha_mix =  0.700 |ddv_scf|^2 =  1.617E-07

      iter #   3 total cpu time :    70.9 secs   av.it.:  10.2
      thresh= 4.021E-05 alpha_mix =  0.700 |ddv_scf|^2 =  1.647E-09

      iter #   4 total cpu time :    71.4 secs   av.it.:  10.2
      thresh= 4.058E-06 alpha_mix =  0.700 |ddv_scf|^2 =  6.445E-11

      iter #   5 total cpu time :    71.9 secs   av.it.:  10.5
      thresh= 8.028E-07 alpha_mix =  0.700 |ddv_scf|^2 =  3.827E-13

     End of self-consistent calculation

     Convergence has been achieved 


     Representation #  3 modes #   3  4

     Self-consistent Calculation

      iter #   1 total cpu time :    72.6 secs   av.it.:   5.2
      thresh= 1.000E-02 alpha_mix =  0.700 |ddv_scf|^2 =  1.048E-07

      iter #   2 total cpu time :    73.6 secs   av.it.:  11.7
      thresh= 3.238E-05 alpha_mix =  0.700 |ddv_scf|^2 =  1.445E-08

      iter #   3 total cpu time :    74.5 secs   av.it.:  11.2
      thresh= 1.202E-05 alpha_mix =  0.700 |ddv_scf|^2 =  2.434E-10

      iter #   4 total cpu time :    75.4 secs   av.it.:  10.8
      thresh= 1.560E-06 alpha_mix =  0.700 |ddv_scf|^2 =  5.720E-13

     End of self-consistent calculation

     Convergence has been achieved 


     Representation #  4 modes #   5  6

     Self-consistent Calculation

      iter #   1 total cpu time :    76.2 secs   av.it.:   5.3
      thresh= 1.000E-02 alpha_mix =  0.700 |ddv_scf|^2 =  9.610E-08

      iter #   2 total cpu time :    77.2 secs   av.it.:  11.6
      thresh= 3.100E-05 alpha_mix =  0.700 |ddv_scf|^2 =  1.290E-08

      iter #   3 total cpu time :    78.1 secs   av.it.:  11.4
      thresh= 1.136E-05 alpha_mix =  0.700 |ddv_scf|^2 =  2.490E-10

      iter #   4 total cpu time :    79.1 secs   av.it.:  11.1
      thresh= 1.578E-06 alpha_mix =  0.700 |ddv_scf|^2 =  6.096E-13

     End of self-consistent calculation

     Convergence has been achieved 

     Number of q in the star =    6
     List of q in the star:
          1   0.000000000   0.500000000   0.000000000
          2   0.000000000  -0.500000000   0.000000000
          3   0.500000000   0.000000000   0.000000000
          4   0.000000000   0.000000000   0.500000000
          5   0.000000000   0.000000000  -0.500000000
          6  -0.500000000   0.000000000   0.000000000

     Diagonalizing the dynamical matrix

     q = (    0.000000000   0.500000000   0.000000000 ) 

 **************************************************************************
     freq (    1) =       3.764633 [THz] =     125.574641 [cm-1]
     freq (    2) =       3.764633 [THz] =     125.574641 [cm-1]
     freq (    3) =       7.075730 [THz] =     236.020961 [cm-1]
     freq (    4) =      13.859180 [THz] =     462.292489 [cm-1]
     freq (    5) =      13.859180 [THz] =     462.292489 [cm-1]
     freq (    6) =      14.486657 [THz] =     483.222853 [cm-1]
 **************************************************************************

     Mode symmetry, C_4v (4mm)  point group:

     freq (  1 -  2) =        125.6  [cm-1]   --> E    G_5 D_5       
     freq (  3 -  3) =        236.0  [cm-1]   --> A_1  G_1 D_1       
     freq (  4 -  5) =        462.3  [cm-1]   --> E    G_5 D_5       
     freq (  6 -  6) =        483.2  [cm-1]   --> B_2  G_4 D_2'      

     Calculation of q =    0.7500000  -0.2500000   0.7500000

   Info: using nr1, nr2, nr3 values from input

   Info: using nr1, nr2, nr3 values from input

     Parallelization info
     --------------------
     sticks:   dense  smooth     PW     G-vecs:    dense   smooth      PW
     Min         219     109     40                 4315     1545     362
     Max         220     110     41                 4316     1546     366
     Sum         877     439    163                17261     6183    1459



     bravais-lattice index     =            2
     lattice parameter (alat)  =      10.3260  a.u.
     unit-cell volume          =     275.2557 (a.u.)^3
     number of atoms/cell      =            2
     number of atomic types    =            1
     number of electrons       =         8.00
     number of Kohn-Sham states=            4
     kinetic-energy cutoff     =      30.0000  Ry
     charge density cutoff     =     240.0000  Ry
     Exchange-correlation      = SLA  PW   PBE  PBE ( 1  4  3  4 0 0)

     celldm(1)=  10.326000  celldm(2)=   0.000000  celldm(3)=   0.000000
     celldm(4)=   0.000000  celldm(5)=   0.000000  celldm(6)=   0.000000

     crystal axes: (cart. coord. in units of alat)
               a(1) = (  -0.500000   0.000000   0.500000 )  
               a(2) = (   0.000000   0.500000   0.500000 )  
               a(3) = (  -0.500000   0.500000   0.000000 )  

     reciprocal axes: (cart. coord. in units 2 pi/alat)
               b(1) = ( -1.000000 -1.000000  1.000000 )  
               b(2) = (  1.000000  1.000000  1.000000 )  
               b(3) = ( -1.000000  1.000000 -1.000000 )  


     PseudoPot. # 1 for Si read from file:
     /home/s1333534/quantum_espresso/qe-6.1/pseudo/si_pbe_v1.uspp.F.UPF.txt
     MD5 check sum: a056efeee980c13900f22a371efd63c1
     Pseudo is Ultrasoft + core correction, Zval =  4.0
     Generated by new atomic code, or converted to UPF format
     Using radial grid of  899 points,  6 beta functions with: 
                l(1) =   0
                l(2) =   0
                l(3) =   1
                l(4) =   1
                l(5) =   2
                l(6) =   2
     Q(r) pseudized with  8 coefficients,  rinner =    0.900   0.900   0.900
                                                       0.900   0.900

     atomic species   valence    mass     pseudopotential
        Si             4.00    28.08600     Si( 1.00)

     48 Sym. Ops., with inversion, found



   Cartesian axes

     site n.     atom                  positions (alat units)
         1           Si  tau(   1) = (   0.0000000   0.0000000   0.0000000  )
         2           Si  tau(   2) = (   0.2500000   0.2500000   0.2500000  )

     number of k points=   288

     Number of k-points >= 100: set verbosity='high' to print them.

     Dense  grid:    17261 G-vectors     FFT dimensions: (  40,  40,  40)

     Smooth grid:     6183 G-vectors     FFT dimensions: (  25,  25,  25)

     Estimated max dynamical RAM per process >       1.78MB

     Estimated total allocated dynamical RAM >       7.14MB

     The potential is recalculated from file :
     ./_ph0/silicon.10.326.save/charge-density.dat

     Starting wfc are    8 atomic wfcs

     Band Structure Calculation
     Davidson diagonalization with overlap

     ethr =  1.25E-10,  avg # of iterations = 12.1

     total cpu time spent up to now is        7.5 secs

     End of band structure calculation

     Number of k-points >= 100: set verbosity='high' to print the bands.

     highest occupied level (ev):     5.7181

     Writing output data file silicon.10.326.save

                                                                                

     bravais-lattice index     =            2
     lattice parameter (alat)  =      10.3260  a.u.
     unit-cell volume          =     275.2557 (a.u.)^3
     number of atoms/cell      =            2
     number of atomic types    =            1
     kinetic-energy cut-off    =      30.0000  Ry
     charge density cut-off    =     240.0000  Ry
     convergence threshold     =      1.0E-12
     beta                      =       0.7000
     number of iterations used =            4
     Exchange-correlation      = SLA  PW   PBE  PBE ( 1  4  3  4 0 0)


     celldm(1)=   10.32600  celldm(2)=    0.00000  celldm(3)=    0.00000
     celldm(4)=    0.00000  celldm(5)=    0.00000  celldm(6)=    0.00000

     crystal axes: (cart. coord. in units of alat)
               a(1) = ( -0.5000  0.0000  0.5000 )  
               a(2) = (  0.0000  0.5000  0.5000 )  
               a(3) = ( -0.5000  0.5000  0.0000 )  

     reciprocal axes: (cart. coord. in units 2 pi/alat)
               b(1) = ( -1.0000 -1.0000  1.0000 )  
               b(2) = (  1.0000  1.0000  1.0000 )  
               b(3) = ( -1.0000  1.0000 -1.0000 )  


     Atoms inside the unit cell: 

     Cartesian axes

     site n.  atom      mass           positions (alat units)
        1     Si  28.0860   tau(    1) = (    0.00000    0.00000    0.00000  )
        2     Si  28.0860   tau(    2) = (    0.25000    0.25000    0.25000  )

     Computing dynamical matrix for 
                    q = (   0.7500000  -0.2500000   0.7500000 )

      2 Sym.Ops. (no q -> -q+G )


     G cutoff =  648.2100  (   4315 G-vectors)     FFT grid: ( 40, 40, 40)
     G cutoff =  324.1050  (   1546 G-vectors)  smooth grid: ( 25, 25, 25)
     number of k points=   288

     PseudoPot. # 1 for Si read from file:
     /home/s1333534/quantum_espresso/qe-6.1/pseudo/si_pbe_v1.uspp.F.UPF.txt
     MD5 check sum: a056efeee980c13900f22a371efd63c1
     Pseudo is Ultrasoft + core correction, Zval =  4.0
     Generated by new atomic code, or converted to UPF format
     Using radial grid of  899 points,  6 beta functions with: 
                l(1) =   0
                l(2) =   0
                l(3) =   1
                l(4) =   1
                l(5) =   2
                l(6) =   2
     Q(r) pseudized with  8 coefficients,  rinner =    0.900   0.900   0.900
                                                       0.900   0.900

     Mode symmetry, C_s (m)     point group:


     Atomic displacements:
     There are   6 irreducible representations

     Representation     1      1 modes -A'  To be done

     Representation     2      1 modes -A'  To be done

     Representation     3      1 modes -A'  To be done

     Representation     4      1 modes -A'  To be done

     Representation     5      1 modes -A''  To be done

     Representation     6      1 modes -A''  To be done



     Alpha used in Ewald sum =   2.5000
     PHONON       :  0m54.97s CPU     1m24.42s WALL



     Representation #  1 mode #   1

     Self-consistent Calculation

      iter #   1 total cpu time :    85.3 secs   av.it.:   5.6
      thresh= 1.000E-02 alpha_mix =  0.700 |ddv_scf|^2 =  7.637E-06

      iter #   2 total cpu time :    87.1 secs   av.it.:  10.7
      thresh= 2.764E-04 alpha_mix =  0.700 |ddv_scf|^2 =  2.038E-05

      iter #   3 total cpu time :    88.4 secs   av.it.:   9.4
      thresh= 4.515E-04 alpha_mix =  0.700 |ddv_scf|^2 =  1.368E-07

      iter #   4 total cpu time :    89.7 secs   av.it.:  10.1
      thresh= 3.698E-05 alpha_mix =  0.700 |ddv_scf|^2 =  2.710E-09

      iter #   5 total cpu time :    91.1 secs   av.it.:  10.6
      thresh= 5.206E-06 alpha_mix =  0.700 |ddv_scf|^2 =  4.659E-10

      iter #   6 total cpu time :    92.4 secs   av.it.:  10.6
      thresh= 2.159E-06 alpha_mix =  0.700 |ddv_scf|^2 =  7.086E-12

      iter #   7 total cpu time :    93.8 secs   av.it.:  10.7
      thresh= 2.662E-07 alpha_mix =  0.700 |ddv_scf|^2 =  2.675E-13

     End of self-consistent calculation

     Convergence has been achieved 


     Representation #  2 mode #   2

     Self-consistent Calculation

      iter #   1 total cpu time :    94.8 secs   av.it.:   5.8
      thresh= 1.000E-02 alpha_mix =  0.700 |ddv_scf|^2 =  1.368E-05

      iter #   2 total cpu time :    96.2 secs   av.it.:  10.6
      thresh= 3.699E-04 alpha_mix =  0.700 |ddv_scf|^2 =  3.964E-05

      iter #   3 total cpu time :    97.5 secs   av.it.:   9.2
      thresh= 6.296E-04 alpha_mix =  0.700 |ddv_scf|^2 =  9.217E-08

      iter #   4 total cpu time :    98.8 secs   av.it.:  10.4
      thresh= 3.036E-05 alpha_mix =  0.700 |ddv_scf|^2 =  3.064E-09

      iter #   5 total cpu time :   100.2 secs   av.it.:  10.6
      thresh= 5.535E-06 alpha_mix =  0.700 |ddv_scf|^2 =  6.244E-10

      iter #   6 total cpu time :   101.5 secs   av.it.:  10.5
      thresh= 2.499E-06 alpha_mix =  0.700 |ddv_scf|^2 =  6.469E-12

      iter #   7 total cpu time :   102.8 secs   av.it.:  10.7
      thresh= 2.543E-07 alpha_mix =  0.700 |ddv_scf|^2 =  2.281E-13

     End of self-consistent calculation

     Convergence has been achieved 


     Representation #  3 mode #   3

     Self-consistent Calculation

      iter #   1 total cpu time :   103.9 secs   av.it.:   5.7
      thresh= 1.000E-02 alpha_mix =  0.700 |ddv_scf|^2 =  1.072E-05

      iter #   2 total cpu time :   105.3 secs   av.it.:  10.7
      thresh= 3.274E-04 alpha_mix =  0.700 |ddv_scf|^2 =  2.917E-05

      iter #   3 total cpu time :   106.6 secs   av.it.:   9.2
      thresh= 5.401E-04 alpha_mix =  0.700 |ddv_scf|^2 =  1.609E-07

      iter #   4 total cpu time :   107.9 secs   av.it.:  10.0
      thresh= 4.011E-05 alpha_mix =  0.700 |ddv_scf|^2 =  3.122E-09

      iter #   5 total cpu time :   109.3 secs   av.it.:  10.7
      thresh= 5.588E-06 alpha_mix =  0.700 |ddv_scf|^2 =  6.097E-10

      iter #   6 total cpu time :   110.6 secs   av.it.:  10.5
      thresh= 2.469E-06 alpha_mix =  0.700 |ddv_scf|^2 =  4.530E-12

      iter #   7 total cpu time :   111.9 secs   av.it.:  10.7
      thresh= 2.128E-07 alpha_mix =  0.700 |ddv_scf|^2 =  1.319E-13

     End of self-consistent calculation

     Convergence has been achieved 


     Representation #  4 mode #   4

     Self-consistent Calculation

      iter #   1 total cpu time :   113.0 secs   av.it.:   5.5
      thresh= 1.000E-02 alpha_mix =  0.700 |ddv_scf|^2 =  4.673E-06

      iter #   2 total cpu time :   114.4 secs   av.it.:  10.8
      thresh= 2.162E-04 alpha_mix =  0.700 |ddv_scf|^2 =  9.902E-06

      iter #   3 total cpu time :   115.7 secs   av.it.:   9.7
      thresh= 3.147E-04 alpha_mix =  0.700 |ddv_scf|^2 =  2.144E-07

      iter #   4 total cpu time :   117.0 secs   av.it.:  10.0
      thresh= 4.630E-05 alpha_mix =  0.700 |ddv_scf|^2 =  2.675E-09

      iter #   5 total cpu time :   118.4 secs   av.it.:  10.7
      thresh= 5.172E-06 alpha_mix =  0.700 |ddv_scf|^2 =  5.004E-10

      iter #   6 total cpu time :   120.0 secs   av.it.:  10.5
      thresh= 2.237E-06 alpha_mix =  0.700 |ddv_scf|^2 =  2.993E-12

      iter #   7 total cpu time :   121.3 secs   av.it.:  10.8
      thresh= 1.730E-07 alpha_mix =  0.700 |ddv_scf|^2 =  1.371E-13

     End of self-consistent calculation

     Convergence has been achieved 


     Representation #  5 mode #   5

     Self-consistent Calculation

      iter #   1 total cpu time :   122.4 secs   av.it.:   5.2
      thresh= 1.000E-02 alpha_mix =  0.700 |ddv_scf|^2 =  4.845E-07

      iter #   2 total cpu time :   123.7 secs   av.it.:  10.4
      thresh= 6.961E-05 alpha_mix =  0.700 |ddv_scf|^2 =  7.902E-08

      iter #   3 total cpu time :   125.1 secs   av.it.:  10.2
      thresh= 2.811E-05 alpha_mix =  0.700 |ddv_scf|^2 =  1.054E-09

      iter #   4 total cpu time :   126.4 secs   av.it.:   9.8
      thresh= 3.246E-06 alpha_mix =  0.700 |ddv_scf|^2 =  2.458E-12

      iter #   5 total cpu time :   127.6 secs   av.it.:  10.2
      thresh= 1.568E-07 alpha_mix =  0.700 |ddv_scf|^2 =  6.926E-14

     End of self-consistent calculation

     Convergence has been achieved 


     Representation #  6 mode #   6

     Self-consistent Calculation

      iter #   1 total cpu time :   128.6 secs   av.it.:   5.2
      thresh= 1.000E-02 alpha_mix =  0.700 |ddv_scf|^2 =  4.845E-07

      iter #   2 total cpu time :   130.0 secs   av.it.:  10.4
[...]
        k(   59) = (  -0.8750000   0.1250000  -0.1250000), wk =   0.0625000
        k(   60) = (  -1.3750000  -0.8750000  -0.1250000), wk =   0.0000000
        k(   61) = (  -1.1250000   0.3750000  -0.3750000), wk =   0.0625000
        k(   62) = (  -1.6250000  -0.6250000  -0.3750000), wk =   0.0000000
        k(   63) = (  -0.3750000   0.3750000   1.1250000), wk =   0.0625000
        k(   64) = (  -0.8750000  -0.6250000   1.1250000), wk =   0.0000000

     Dense  grid:    17261 G-vectors     FFT dimensions: (  40,  40,  40)

     Smooth grid:     6183 G-vectors     FFT dimensions: (  25,  25,  25)

     Estimated max dynamical RAM per process >       1.78MB

     Estimated total allocated dynamical RAM >       7.14MB

     The potential is recalculated from file :
     ./_ph0/silicon.10.326.save/charge-density.dat

     Starting wfc are    8 atomic wfcs

     Band Structure Calculation
     Davidson diagonalization with overlap

     ethr =  1.25E-10,  avg # of iterations = 12.1

     total cpu time spent up to now is       11.4 secs

     End of band structure calculation

          k =-0.1250 0.1250 0.1250 (   764 PWs)   bands (ev):

    -5.6299   4.4090   5.7181   5.7181

          k =-0.6250-0.8750 0.1250 (   755 PWs)   bands (ev):

    -2.4258  -0.8828   2.0228   3.1013

          k =-0.3750 0.3750-0.1250 (   767 PWs)   bands (ev):

    -4.6017   1.4137   3.7294   5.2376

          k =-0.8750-0.6250-0.1250 (   755 PWs)   bands (ev):

    -2.4258  -0.8828   2.0228   3.1013

          k = 0.3750-0.3750 0.6250 (   763 PWs)   bands (ev):

    -3.4599  -0.6679   3.7510   4.4649

          k =-0.1250-1.3750 0.6250 (   763 PWs)   bands (ev):

    -2.9635  -0.5813   2.0819   4.1473

          k = 0.1250-0.1250 0.3750 (   768 PWs)   bands (ev):

    -5.1013   2.7922   4.7085   4.7736

          k =-0.3750-1.1250 0.3750 (   763 PWs)   bands (ev):

    -2.9635  -0.5813   2.0819   4.1473

          k =-0.1250 0.6250 0.1250 (   766 PWs)   bands (ev):

    -4.0684   1.0813   3.3799   3.8333

          k =-0.6250-0.3750 0.1250 (   766 PWs)   bands (ev):

    -3.6521   0.2059   2.7375   4.1083

          k = 0.6250-0.1250 0.8750 (   755 PWs)   bands (ev):

    -2.4258  -0.8828   2.0228   3.1013

          k = 0.1250-1.1250 0.8750 (   762 PWs)   bands (ev):

    -2.5943  -0.7851   2.6339   3.3659

          k = 0.3750 0.1250 0.6250 (   766 PWs)   bands (ev):

    -3.6521   0.2059   2.7375   4.1083

          k =-0.1250-0.8750 0.6250 (   755 PWs)   bands (ev):

    -2.4258  -0.8828   2.0228   3.1013

          k =-0.1250-0.8750 0.1250 (   762 PWs)   bands (ev):

    -2.5943  -0.7851   2.6339   3.3659

          k =-0.6250-1.8750 0.1250 (   766 PWs)   bands (ev):

    -4.0684   1.0813   3.3799   3.8333

          k =-0.3750 0.3750 0.3750 (   763 PWs)   bands (ev):

    -4.1680   0.1210   4.9302   4.9302

          k =-0.8750-0.6250 0.3750 (   766 PWs)   bands (ev):

    -3.6521   0.2059   2.7375   4.1083

          k = 0.3750-0.3750 1.1250 (   763 PWs)   bands (ev):

    -2.9635  -0.5813   2.0819   4.1473

          k =-0.1250-1.3750 1.1250 (   755 PWs)   bands (ev):

    -2.4258  -0.8828   2.0228   3.1013

          k = 0.1250-0.3750 0.3750 (   767 PWs)   bands (ev):

    -4.6017   1.4137   3.7294   5.2376

          k =-0.3750-1.3750 0.3750 (   763 PWs)   bands (ev):

    -3.4599  -0.6679   3.7510   4.4649

          k = 0.3750-0.3750-0.1250 (   767 PWs)   bands (ev):

    -4.6017   1.4137   3.7294   5.2376

          k =-0.1250-1.3750-0.1250 (   766 PWs)   bands (ev):

    -4.0684   1.0813   3.3799   3.8333

          k =-0.6250 0.3750-0.3750 (   763 PWs)   bands (ev):

    -3.4599  -0.6679   3.7510   4.4649

          k =-1.1250-0.6250-0.3750 (   766 PWs)   bands (ev):

    -3.6521   0.2059   2.7375   4.1083

          k =-0.3750 0.3750 0.6250 (   763 PWs)   bands (ev):

    -3.4599  -0.6679   3.7510   4.4649

          k =-0.8750-0.6250 0.6250 (   767 PWs)   bands (ev):

    -4.6017   1.4137   3.7294   5.2376

          k =-0.3750 0.1250-0.1250 (   768 PWs)   bands (ev):

    -5.1013   2.7922   4.7085   4.7736

          k =-0.8750-0.8750-0.1250 (   762 PWs)   bands (ev):

    -2.5943  -0.7851   2.6339   3.3659

          k =-0.1250 0.1250 0.3750 (   768 PWs)   bands (ev):

    -5.1013   2.7922   4.7085   4.7736

          k =-0.6250-0.8750 0.3750 (   766 PWs)   bands (ev):

    -3.6521   0.2059   2.7375   4.1083

          k = 0.1250 0.6250-0.1250 (   766 PWs)   bands (ev):

    -4.0684   1.0813   3.3799   3.8333

          k =-0.3750-0.3750-0.1250 (   767 PWs)   bands (ev):

    -4.6017   1.4137   3.7294   5.2376

          k = 0.6250 0.1250-0.1250 (   766 PWs)   bands (ev):

    -4.0684   1.0813   3.3799   3.8333

          k = 0.1250-0.8750-0.1250 (   762 PWs)   bands (ev):

    -2.5943  -0.7851   2.6339   3.3659

          k =-0.8750 0.1250-0.6250 (   755 PWs)   bands (ev):

    -2.4258  -0.8828   2.0228   3.1013

          k =-1.3750-0.8750-0.6250 (   767 PWs)   bands (ev):

    -4.6017   1.4137   3.7294   5.2376

          k = 0.8750-0.1250 0.6250 (   755 PWs)   bands (ev):

    -2.4258  -0.8828   2.0228   3.1013

          k = 0.3750-1.1250 0.6250 (   766 PWs)   bands (ev):

    -3.6521   0.2059   2.7375   4.1083

          k =-0.6250 0.1250 0.8750 (   755 PWs)   bands (ev):

    -2.4258  -0.8828   2.0228   3.1013

          k =-1.1250-0.8750 0.8750 (   764 PWs)   bands (ev):

    -5.6299   4.4090   5.7181   5.7181

          k =-0.1250 0.8750 0.6250 (   755 PWs)   bands (ev):

    -2.4258  -0.8828   2.0228   3.1013

          k =-0.6250-0.1250 0.6250 (   763 PWs)   bands (ev):

    -2.9635  -0.5813   2.0819   4.1473

          k = 0.1250 0.8750-0.6250 (   755 PWs)   bands (ev):

    -2.4258  -0.8828   2.0228   3.1013

          k =-0.3750-0.1250-0.6250 (   766 PWs)   bands (ev):

    -3.6521   0.2059   2.7375   4.1083

          k =-0.6250-0.1250-0.3750 (   766 PWs)   bands (ev):

    -3.6521   0.2059   2.7375   4.1083

          k =-1.1250-1.1250-0.3750 (   766 PWs)   bands (ev):

    -4.0684   1.0813   3.3799   3.8333

          k = 0.6250 0.1250 0.3750 (   766 PWs)   bands (ev):

    -3.6521   0.2059   2.7375   4.1083

          k = 0.1250-0.8750 0.3750 (   755 PWs)   bands (ev):

    -2.4258  -0.8828   2.0228   3.1013

          k =-0.3750-0.1250 0.6250 (   766 PWs)   bands (ev):

    -3.6521   0.2059   2.7375   4.1083

          k =-0.8750-1.1250 0.6250 (   768 PWs)   bands (ev):

    -5.1013   2.7922   4.7085   4.7736

          k = 0.1250 0.6250 0.3750 (   766 PWs)   bands (ev):

    -3.6521   0.2059   2.7375   4.1083

          k =-0.3750-0.3750 0.3750 (   763 PWs)   bands (ev):

    -4.1680   0.1210   4.9302   4.9302

          k =-0.1250 0.6250-0.3750 (   766 PWs)   bands (ev):

    -3.6521   0.2059   2.7375   4.1083

          k =-0.6250-0.3750-0.3750 (   763 PWs)   bands (ev):

    -3.4599  -0.6679   3.7510   4.4649

          k = 0.1250-0.8750-0.1250 (   762 PWs)   bands (ev):

    -2.5943  -0.7851   2.6339   3.3659

          k =-0.3750-1.8750-0.1250 (   768 PWs)   bands (ev):

    -5.1013   2.7922   4.7085   4.7736

          k =-0.8750 0.1250-0.1250 (   762 PWs)   bands (ev):

    -2.5943  -0.7851   2.6339   3.3659

          k =-1.3750-0.8750-0.1250 (   755 PWs)   bands (ev):

    -2.4258  -0.8828   2.0228   3.1013

          k =-1.1250 0.3750-0.3750 (   763 PWs)   bands (ev):

    -2.9635  -0.5813   2.0819   4.1473

          k =-1.6250-0.6250-0.3750 (   763 PWs)   bands (ev):

    -3.4599  -0.6679   3.7510   4.4649

          k =-0.3750 0.3750 1.1250 (   763 PWs)   bands (ev):

    -2.9635  -0.5813   2.0819   4.1473

          k =-0.8750-0.6250 1.1250 (   768 PWs)   bands (ev):

    -5.1013   2.7922   4.7085   4.7736

     highest occupied level (ev):     5.7181

     Writing output data file silicon.10.326.save

                                                                                

     bravais-lattice index     =            2
     lattice parameter (alat)  =      10.3260  a.u.
     unit-cell volume          =     275.2557 (a.u.)^3
     number of atoms/cell      =            2
     number of atomic types    =            1
     kinetic-energy cut-off    =      30.0000  Ry
     charge density cut-off    =     240.0000  Ry
     convergence threshold     =      1.0E-12
     beta                      =       0.7000
     number of iterations used =            4
     Exchange-correlation      = SLA  PW   PBE  PBE ( 1  4  3  4 0 0)


     celldm(1)=   10.32600  celldm(2)=    0.00000  celldm(3)=    0.00000
     celldm(4)=    0.00000  celldm(5)=    0.00000  celldm(6)=    0.00000

     crystal axes: (cart. coord. in units of alat)
               a(1) = ( -0.5000  0.0000  0.5000 )  
               a(2) = (  0.0000  0.5000  0.5000 )  
               a(3) = ( -0.5000  0.5000  0.0000 )  

     reciprocal axes: (cart. coord. in units 2 pi/alat)
               b(1) = ( -1.0000 -1.0000  1.0000 )  
               b(2) = (  1.0000  1.0000  1.0000 )  
               b(3) = ( -1.0000  1.0000 -1.0000 )  


     Atoms inside the unit cell: 

     Cartesian axes

     site n.  atom      mass           positions (alat units)
        1     Si  28.0860   tau(    1) = (    0.00000    0.00000    0.00000  )
        2     Si  28.0860   tau(    2) = (    0.25000    0.25000    0.25000  )

     Computing dynamical matrix for 
                    q = (  -0.5000000  -1.0000000   0.0000000 )

      8 Sym.Ops. (no q -> -q+G )


     G cutoff =  648.2100  (   4316 G-vectors)     FFT grid: ( 40, 40, 40)
     G cutoff =  324.1050  (   1546 G-vectors)  smooth grid: ( 25, 25, 25)
     number of k points=    64

     PseudoPot. # 1 for Si read from file:
     /home/s1333534/quantum_espresso/qe-6.1/pseudo/si_pbe_v1.uspp.F.UPF.txt
     MD5 check sum: a056efeee980c13900f22a371efd63c1
     Pseudo is Ultrasoft + core correction, Zval =  4.0
     Generated by new atomic code, or converted to UPF format
     Using radial grid of  899 points,  6 beta functions with: 
                l(1) =   0
                l(2) =   0
                l(3) =   1
                l(4) =   1
                l(5) =   2
                l(6) =   2
     Q(r) pseudized with  8 coefficients,  rinner =    0.900   0.900   0.900
                                                       0.900   0.900


     Atomic displacements:
     There are   3 irreducible representations

     Representation     1      2 modes -  To be done

     Representation     2      2 modes -  To be done

     Representation     3      2 modes -  To be done



     Alpha used in Ewald sum =   2.5000
     PHONON       :  2m 7.90s CPU     2m54.63s WALL



     Representation #  1 modes #   1  2

     Self-consistent Calculation

      iter #   1 total cpu time :   175.3 secs   av.it.:   5.7
      thresh= 1.000E-02 alpha_mix =  0.700 |ddv_scf|^2 =  7.900E-07

      iter #   2 total cpu time :   176.3 secs   av.it.:  11.8
      thresh= 8.888E-05 alpha_mix =  0.700 |ddv_scf|^2 =  4.473E-07

      iter #   3 total cpu time :   177.1 secs   av.it.:  11.3
      thresh= 6.688E-05 alpha_mix =  0.700 |ddv_scf|^2 =  4.293E-10

      iter #   4 total cpu time :   178.0 secs   av.it.:  11.1
      thresh= 2.072E-06 alpha_mix =  0.700 |ddv_scf|^2 =  1.916E-12

      iter #   5 total cpu time :   178.7 secs   av.it.:  11.3
      thresh= 1.384E-07 alpha_mix =  0.700 |ddv_scf|^2 =  5.049E-14

     End of self-consistent calculation

     Convergence has been achieved 


     Representation #  2 modes #   3  4

     Self-consistent Calculation

      iter #   1 total cpu time :   179.5 secs   av.it.:   5.6
      thresh= 1.000E-02 alpha_mix =  0.700 |ddv_scf|^2 =  1.225E-06

      iter #   2 total cpu time :   180.4 secs   av.it.:  11.8
      thresh= 1.107E-04 alpha_mix =  0.700 |ddv_scf|^2 =  1.658E-06

      iter #   3 total cpu time :   181.3 secs   av.it.:  11.0
      thresh= 1.288E-04 alpha_mix =  0.700 |ddv_scf|^2 =  5.087E-10

      iter #   4 total cpu time :   182.1 secs   av.it.:  11.1
      thresh= 2.255E-06 alpha_mix =  0.700 |ddv_scf|^2 =  7.820E-12

      iter #   5 total cpu time :   182.9 secs   av.it.:  11.3
      thresh= 2.796E-07 alpha_mix =  0.700 |ddv_scf|^2 =  1.301E-13

     End of self-consistent calculation

     Convergence has been achieved 


     Representation #  3 modes #   5  6

     Self-consistent Calculation

      iter #   1 total cpu time :   183.6 secs   av.it.:   5.3
      thresh= 1.000E-02 alpha_mix =  0.700 |ddv_scf|^2 =  3.209E-07

      iter #   2 total cpu time :   184.6 secs   av.it.:  11.8
      thresh= 5.665E-05 alpha_mix =  0.700 |ddv_scf|^2 =  1.875E-07

      iter #   3 total cpu time :   185.4 secs   av.it.:  11.2
      thresh= 4.330E-05 alpha_mix =  0.700 |ddv_scf|^2 =  3.730E-10

      iter #   4 total cpu time :   186.3 secs   av.it.:  11.1
      thresh= 1.931E-06 alpha_mix =  0.700 |ddv_scf|^2 =  4.382E-12

      iter #   5 total cpu time :   187.1 secs   av.it.:  11.2
      thresh= 2.093E-07 alpha_mix =  0.700 |ddv_scf|^2 =  6.058E-14

     End of self-consistent calculation

     Convergence has been achieved 

     Number of q in the star =    6
     List of q in the star:
          1  -0.500000000  -1.000000000   0.000000000
          2   0.000000000   1.000000000   0.500000000
          3   0.000000000  -1.000000000  -0.500000000
          4   0.500000000   1.000000000   0.000000000
          5  -1.000000000  -0.500000000   0.000000000
          6   0.000000000  -0.500000000  -1.000000000

     Diagonalizing the dynamical matrix

     q = (   -0.500000000  -1.000000000   0.000000000 ) 

 **************************************************************************
     freq (    1) =       6.013527 [THz] =     200.589672 [cm-1]
     freq (    2) =       6.013527 [THz] =     200.589672 [cm-1]
     freq (    3) =      10.350588 [THz] =     345.258441 [cm-1]
     freq (    4) =      10.350588 [THz] =     345.258441 [cm-1]
     freq (    5) =      13.599881 [THz] =     453.643203 [cm-1]
     freq (    6) =      13.599881 [THz] =     453.643203 [cm-1]
 **************************************************************************

     init_run     :      1.27s CPU      1.34s WALL (       7 calls)
     electrons    :      7.36s CPU      7.97s WALL (       7 calls)

     Called by init_run:
     wfcinit      :      0.00s CPU      0.04s WALL (       7 calls)
     potinit      :      0.10s CPU      0.12s WALL (       7 calls)

     Called by electrons:
     c_bands      :      7.36s CPU      7.96s WALL (       7 calls)
     v_of_rho     :      0.09s CPU      0.09s WALL (       8 calls)
     newd         :      0.12s CPU      0.12s WALL (       8 calls)

     Called by c_bands:
     init_us_2    :      1.62s CPU      1.58s WALL (   15896 calls)
     cegterg      :      6.18s CPU      6.64s WALL (     796 calls)

     Called by sum_band:

     Called by *egterg:
     h_psi        :     70.65s CPU     75.95s WALL (  154661 calls)
     s_psi        :      5.77s CPU      6.98s WALL (  311580 calls)
     g_psi        :      0.05s CPU      0.07s WALL (    9666 calls)
     cdiaghg      :      0.56s CPU      0.56s WALL (   10462 calls)

     Called by h_psi:
     h_psi:pot    :     70.24s CPU     75.44s WALL (  154661 calls)
     h_psi:calbec :      3.50s CPU      4.00s WALL (  154661 calls)
     vloc_psi     :     62.15s CPU     67.28s WALL (  154661 calls)
     add_vuspsi   :      4.24s CPU      3.68s WALL (  154661 calls)

     General routines
     calbec       :      8.40s CPU      8.76s WALL (  345888 calls)
     fft          :      1.89s CPU      1.97s WALL (    5233 calls)
     ffts         :      0.21s CPU      0.23s WALL (    3316 calls)
     fftw         :     63.81s CPU     67.81s WALL ( 1384368 calls)
     interpolate  :      0.33s CPU      0.36s WALL (     568 calls)
     davcio       :      0.34s CPU      1.35s WALL (   69130 calls)

     Parallel routines
     fft_scatter  :     15.18s CPU     19.79s WALL ( 1392917 calls)

     PHONON       :  2m17.47s CPU     3m 7.43s WALL

     INITIALIZATION: 
     phq_setup    :      0.29s CPU      0.76s WALL (       8 calls)
     phq_init     :      7.16s CPU      7.54s WALL (       8 calls)

     phq_init     :      7.16s CPU      7.54s WALL (       8 calls)
     set_drhoc    :      1.83s CPU      1.84s WALL (      24 calls)
     init_vloc    :      0.03s CPU      0.03s WALL (       8 calls)
     init_us_1    :      0.98s CPU      0.98s WALL (       8 calls)
     newd         :      0.12s CPU      0.12s WALL (       8 calls)
     dvanqq       :      1.17s CPU      1.17s WALL (       8 calls)
     drho         :      2.62s CPU      2.69s WALL (       8 calls)

     DYNAMICAL MATRIX:
     dynmat0      :      1.73s CPU      1.83s WALL (       8 calls)
     phqscf       :    115.88s CPU    154.87s WALL (       8 calls)
     dynmatrix    :      0.01s CPU      0.30s WALL (       8 calls)

     phqscf       :    115.88s CPU    154.87s WALL (       8 calls)
     solve_linter :    114.97s CPU    151.52s WALL (      32 calls)
     drhodv       :      0.61s CPU      0.63s WALL (      32 calls)

     dynmat0      :      1.73s CPU      1.83s WALL (       8 calls)
     dynmat_us    :      0.38s CPU      0.39s WALL (       8 calls)
     d2ionq       :      0.04s CPU      0.04s WALL (       8 calls)
     dynmatcc     :      1.30s CPU      1.30s WALL (       8 calls)

     dynmat_us    :      0.38s CPU      0.39s WALL (       8 calls)
     addusdynmat  :      0.00s CPU      0.00s WALL (       8 calls)

     phqscf       :    115.88s CPU    154.87s WALL (       8 calls)
     solve_linter :    114.97s CPU    151.52s WALL (      32 calls)

     solve_linter :    114.97s CPU    151.52s WALL (      32 calls)
     dvqpsi_us    :      2.14s CPU      2.27s WALL (    2508 calls)
     ortho        :      0.84s CPU      0.95s WALL (   13486 calls)
     cgsolve      :     78.03s CPU     85.04s WALL (   13486 calls)
     incdrhoscf   :      6.08s CPU      6.67s WALL (   13486 calls)
     addusddens   :      7.06s CPU      7.12s WALL (     200 calls)
     vpsifft      :      4.42s CPU      4.86s WALL (   10858 calls)
     dv_of_drho   :      1.73s CPU      1.79s WALL (     254 calls)
     mix_pot      :      0.64s CPU     17.62s WALL (     173 calls)
     psymdvscf    :      5.89s CPU      5.96s WALL (     168 calls)
     newdq        :      7.65s CPU      7.66s WALL (     173 calls)
     adddvscf     :      0.46s CPU      0.43s WALL (   10978 calls)
     drhodvus     :      0.01s CPU      0.02s WALL (      32 calls)

     dvqpsi_us    :      2.14s CPU      2.27s WALL (    2508 calls)
     dvqpsi_us_on :      0.91s CPU      0.94s WALL (    2508 calls)

     cgsolve      :     78.03s CPU     85.04s WALL (   13486 calls)
     ch_psi       :     76.90s CPU     83.30s WALL (  143403 calls)

     ch_psi       :     76.90s CPU     83.30s WALL (  143403 calls)
     h_psi        :     70.65s CPU     75.95s WALL (  154661 calls)
     last         :      8.91s CPU      9.13s WALL (  143403 calls)

     h_psi        :     70.65s CPU     75.95s WALL (  154661 calls)
     add_vuspsi   :      4.24s CPU      3.68s WALL (  154661 calls)

     incdrhoscf   :      6.08s CPU      6.67s WALL (   13486 calls)
     addusdbec    :      0.48s CPU      0.51s WALL (   15934 calls)

     drhodvus     :      0.01s CPU      0.02s WALL (      32 calls)

      General routines
     calbec       :      8.40s CPU      8.76s WALL (  345888 calls)
     fft          :      1.89s CPU      1.97s WALL (    5233 calls)
     ffts         :      0.21s CPU      0.23s WALL (    3316 calls)
     fftw         :     63.81s CPU     67.81s WALL ( 1384368 calls)
     davcio       :      0.34s CPU      1.35s WALL (   69130 calls)
     write_rec    :      0.23s CPU     16.33s WALL (     205 calls)


     PHONON       :  2m17.47s CPU     3m 7.43s WALL


   This run was terminated on:  15:57: 8  10Nov2017            

=------------------------------------------------------------------------------=
   JOB DONE.
=------------------------------------------------------------------------------=
