
     Program PWSCF v.6.1 (svn rev. 13369) starts on 10Nov2017 at 10:30:58 

     This program is part of the open-source Quantum ESPRESSO suite
     for quantum simulation of materials; please cite
         "P. Giannozzi et al., J. Phys.:Condens. Matter 21 395502 (2009);
          URL http://www.quantum-espresso.org", 
     in publications or presentations arising from this work. More details at
     http://www.quantum-espresso.org/quote

     Parallel version (MPI), running on     4 processors
     R & G space division:  proc/nbgrp/npool/nimage =       4
     Waiting for input...
     Reading input from standard input
     Message from routine read_cards :
     DEPRECATED: no units specified in ATOMIC_POSITIONS card
     Message from routine read_cards :
     ATOMIC_POSITIONS: units set to alat

     Current dimensions of program PWSCF are:
     Max number of different atomic species (ntypx) = 10
     Max number of k-points (npk) =  40000
     Max angular momentum in pseudopotentials (lmaxx) =  3

     Subspace diagonalization in iterative solution of the eigenvalue problem:
     a serial algorithm will be used


     Parallelization info
     --------------------
     sticks:   dense  smooth     PW     G-vecs:    dense   smooth      PW
     Min         217     109     37                 4288     1520     301
     Max         219     111     38                 4289     1521     304
     Sum         871     439    151                17153     6081    1211



     bravais-lattice index     =            2
     lattice parameter (alat)  =      10.3120  a.u.
     unit-cell volume          =     274.1377 (a.u.)^3
     number of atoms/cell      =            2
     number of atomic types    =            1
     number of electrons       =         8.00
     number of Kohn-Sham states=            4
     kinetic-energy cutoff     =      30.0000  Ry
     charge density cutoff     =     240.0000  Ry
     convergence threshold     =      1.0E-08
     mixing beta               =       0.7000
     number of iterations used =            8  plain     mixing
     Exchange-correlation      = SLA  PW   PBE  PBE ( 1  4  3  4 0 0)

     celldm(1)=  10.312000  celldm(2)=   0.000000  celldm(3)=   0.000000
     celldm(4)=   0.000000  celldm(5)=   0.000000  celldm(6)=   0.000000

     crystal axes: (cart. coord. in units of alat)
               a(1) = (  -0.500000   0.000000   0.500000 )  
               a(2) = (   0.000000   0.500000   0.500000 )  
               a(3) = (  -0.500000   0.500000   0.000000 )  

     reciprocal axes: (cart. coord. in units 2 pi/alat)
               b(1) = ( -1.000000 -1.000000  1.000000 )  
               b(2) = (  1.000000  1.000000  1.000000 )  
               b(3) = ( -1.000000  1.000000 -1.000000 )  


     PseudoPot. # 1 for Si read from file:
     /home/max/quantum_espresso/qe-6.1/pseudo/si_pbe_v1.uspp.F.UPF.txt
     MD5 check sum: a056efeee980c13900f22a371efd63c1
     Pseudo is Ultrasoft + core correction, Zval =  4.0
     Generated by new atomic code, or converted to UPF format
     Using radial grid of  899 points,  6 beta functions with: 
                l(1) =   0
                l(2) =   0
                l(3) =   1
                l(4) =   1
                l(5) =   2
                l(6) =   2
     Q(r) pseudized with  8 coefficients,  rinner =    0.900   0.900   0.900
                                                       0.900   0.900

     atomic species   valence    mass     pseudopotential
        Si             4.00    28.08600     Si( 1.00)

     48 Sym. Ops., with inversion, found (24 have fractional translation)



   Cartesian axes

     site n.     atom                  positions (alat units)
         1           Si  tau(   1) = (   0.0000000   0.0000000   0.0000000  )
         2           Si  tau(   2) = (   0.2500000   0.2500000   0.2500000  )

     number of k points=    28
                       cart. coord. in units 2pi/alat
        k(    1) = (  -0.0833333   0.0833333   0.0833333), wk =   0.0185185
        k(    2) = (  -0.2500000   0.2500000  -0.0833333), wk =   0.0555556
        k(    3) = (  -0.4166667   0.4166667  -0.2500000), wk =   0.0555556
        k(    4) = (   0.4166667  -0.4166667   0.5833333), wk =   0.0555556
        k(    5) = (   0.2500000  -0.2500000   0.4166667), wk =   0.0555556
        k(    6) = (   0.0833333  -0.0833333   0.2500000), wk =   0.0555556
        k(    7) = (  -0.0833333   0.4166667   0.0833333), wk =   0.0555556
        k(    8) = (  -0.2500000   0.5833333  -0.0833333), wk =   0.1111111
        k(    9) = (   0.5833333  -0.2500000   0.7500000), wk =   0.1111111
        k(   10) = (   0.4166667  -0.0833333   0.5833333), wk =   0.1111111
        k(   11) = (   0.2500000   0.0833333   0.4166667), wk =   0.1111111
        k(   12) = (  -0.0833333   0.7500000   0.0833333), wk =   0.0555556
        k(   13) = (   0.7500000  -0.0833333   0.9166667), wk =   0.1111111
        k(   14) = (   0.5833333   0.0833333   0.7500000), wk =   0.1111111
        k(   15) = (   0.4166667   0.2500000   0.5833333), wk =   0.1111111
        k(   16) = (  -0.0833333  -0.9166667   0.0833333), wk =   0.0555556
        k(   17) = (  -0.2500000  -0.7500000  -0.0833333), wk =   0.1111111
        k(   18) = (  -0.0833333  -0.5833333   0.0833333), wk =   0.0555556
        k(   19) = (  -0.2500000   0.2500000   0.2500000), wk =   0.0185185
        k(   20) = (  -0.4166667   0.4166667   0.0833333), wk =   0.0555556
        k(   21) = (   0.4166667  -0.4166667   0.9166667), wk =   0.0555556
        k(   22) = (   0.2500000  -0.2500000   0.7500000), wk =   0.0555556
        k(   23) = (  -0.2500000   0.5833333   0.2500000), wk =   0.0555556
        k(   24) = (   0.5833333  -0.2500000   1.0833333), wk =   0.1111111
        k(   25) = (   0.4166667  -0.0833333   0.9166667), wk =   0.1111111
        k(   26) = (  -0.2500000  -1.0833333   0.2500000), wk =   0.0555556
        k(   27) = (  -0.4166667   0.4166667   0.4166667), wk =   0.0185185
        k(   28) = (   0.4166667  -0.4166667   1.2500000), wk =   0.0555556

     Dense  grid:    17153 G-vectors     FFT dimensions: (  36,  36,  36)

     Smooth grid:     6081 G-vectors     FFT dimensions: (  25,  25,  25)

     Estimated max dynamical RAM per process >       3.04MB

     Estimated total allocated dynamical RAM >      12.16MB

     Initial potential from superposition of free atoms

     starting charge    7.99866, renormalised to    8.00000
     Starting wfc are    8 randomized atomic wfcs

     total cpu time spent up to now is        0.8 secs

     per-process dynamical memory:     9.9 Mb

     Self-consistent Calculation

     iteration #  1     ecut=    30.00 Ry     beta=0.70
     Davidson diagonalization with overlap
     ethr =  1.00E-02,  avg # of iterations =  2.0

     Threshold (ethr) on eigenvalues was too large:
     Diagonalizing with lowered threshold

     Davidson diagonalization with overlap
     ethr =  6.85E-04,  avg # of iterations =  1.0

     total cpu time spent up to now is        1.2 secs

     total energy              =     -19.19118777 Ry
     Harris-Foulkes estimate   =     -19.20388588 Ry
     estimated scf accuracy    <       0.05420847 Ry

     iteration #  2     ecut=    30.00 Ry     beta=0.70
     Davidson diagonalization with overlap
     ethr =  6.78E-04,  avg # of iterations =  1.0

     total cpu time spent up to now is        1.5 secs

     total energy              =     -19.19296964 Ry
     Harris-Foulkes estimate   =     -19.19313967 Ry
     estimated scf accuracy    <       0.00244266 Ry

     iteration #  3     ecut=    30.00 Ry     beta=0.70
     Davidson diagonalization with overlap
     ethr =  3.05E-05,  avg # of iterations =  2.0

     total cpu time spent up to now is        2.0 secs

     total energy              =     -19.19329781 Ry
     Harris-Foulkes estimate   =     -19.19331154 Ry
     estimated scf accuracy    <       0.00004409 Ry

     iteration #  4     ecut=    30.00 Ry     beta=0.70
     Davidson diagonalization with overlap
     ethr =  5.51E-07,  avg # of iterations =  3.4

     total cpu time spent up to now is        2.3 secs

     total energy              =     -19.19333854 Ry
     Harris-Foulkes estimate   =     -19.19333961 Ry
     estimated scf accuracy    <       0.00000368 Ry

     iteration #  5     ecut=    30.00 Ry     beta=0.70
     Davidson diagonalization with overlap
     ethr =  4.60E-08,  avg # of iterations =  2.0

     total cpu time spent up to now is        2.5 secs

     total energy              =     -19.19333903 Ry
     Harris-Foulkes estimate   =     -19.19333902 Ry
     estimated scf accuracy    <       0.00000001 Ry

     iteration #  6     ecut=    30.00 Ry     beta=0.70
     Davidson diagonalization with overlap
     ethr =  1.37E-10,  avg # of iterations =  4.0

     total cpu time spent up to now is        3.0 secs

     End of self-consistent calculation

          k =-0.0833 0.0833 0.0833 (   749 PWs)   bands (ev):

    -5.7275   5.1842   5.9010   5.9010

          k =-0.2500 0.2500-0.0833 (   765 PWs)   bands (ev):

    -5.2554   3.1128   4.6770   5.6915

          k =-0.4167 0.4167-0.2500 (   764 PWs)   bands (ev):

    -4.1746   0.3739   4.2138   5.0598

          k = 0.4167-0.4167 0.5833 (   764 PWs)   bands (ev):

    -3.4858  -0.7574   4.2782   4.6830

          k = 0.2500-0.2500 0.4167 (   769 PWs)   bands (ev):

    -4.5818   1.2127   4.7436   4.7732

          k = 0.0833-0.0833 0.2500 (   765 PWs)   bands (ev):

    -5.4891   4.1174   5.2618   5.4435

          k =-0.0833 0.4167 0.0833 (   768 PWs)   bands (ev):

    -5.0164   2.9200   4.5212   4.5384

          k =-0.2500 0.5833-0.0833 (   763 PWs)   bands (ev):

    -4.1151   1.0930   3.2166   4.1544

          k = 0.5833-0.2500 0.7500 (   759 PWs)   bands (ev):

    -3.0126  -0.6375   2.6176   3.9301

          k = 0.4167-0.0833 0.5833 (   764 PWs)   bands (ev):

    -3.7252   0.4075   2.5795   4.4111

          k = 0.2500 0.0833 0.4167 (   765 PWs)   bands (ev):

    -4.7933   2.0925   3.9069   5.0717

          k =-0.0833 0.7500 0.0833 (   763 PWs)   bands (ev):

    -3.4100   0.2675   3.1825   3.5181

          k = 0.7500-0.0833 0.9167 (   751 PWs)   bands (ev):

    -2.2266  -1.0616   2.3507   3.1167

          k = 0.5833 0.0833 0.7500 (   750 PWs)   bands (ev):

    -2.5964  -0.7246   1.8714   3.6568

          k = 0.4167 0.2500 0.5833 (   763 PWs)   bands (ev):

    -3.6154  -0.2643   3.5081   4.5075

          k =-0.0833-0.9167 0.0833 (   763 PWs)   bands (ev):

    -2.3163  -1.0690   2.9156   3.3044

          k =-0.2500-0.7500-0.0833 (   762 PWs)   bands (ev):

    -3.2437   0.0469   2.6675   3.4541

          k =-0.0833-0.5833 0.0833 (   760 PWs)   bands (ev):

    -4.3183   1.6239   3.7215   3.9369

          k =-0.2500 0.2500 0.2500 (   769 PWs)   bands (ev):

    -5.0282   2.1431   5.2922   5.2922

          k =-0.4167 0.4167 0.0833 (   761 PWs)   bands (ev):

    -4.3558   1.2111   3.1806   5.1237

          k = 0.4167-0.4167 0.9167 (   763 PWs)   bands (ev):

    -3.1899  -0.2214   2.0856   4.3452

          k = 0.2500-0.2500 0.7500 (   763 PWs)   bands (ev):

    -3.1376  -0.3003   2.5582   3.8680

          k =-0.2500 0.5833 0.2500 (   767 PWs)   bands (ev):

    -3.9363   0.4115   3.6369   4.2379

          k = 0.5833-0.2500 1.0833 (   757 PWs)   bands (ev):

    -2.9449  -0.3371   2.1853   3.4528

          k = 0.4167-0.0833 0.9167 (   753 PWs)   bands (ev):

    -2.1225  -1.0693   2.0252   2.7928

          k =-0.2500-1.0833 0.2500 (   756 PWs)   bands (ev):

    -2.3314  -0.9734   1.9001   3.6752

          k =-0.4167 0.4167 0.4167 (   769 PWs)   bands (ev):

    -3.8499  -0.3611   4.9061   4.9061

          k = 0.4167-0.4167 1.2500 (   761 PWs)   bands (ev):

    -3.2522  -0.6633   3.0869   4.4707

     highest occupied level (ev):     5.9010

!    total energy              =     -19.19333906 Ry
     Harris-Foulkes estimate   =     -19.19333906 Ry
     estimated scf accuracy    <          1.0E-09 Ry

     The total energy is the sum of the following terms:

     one-electron contribution =       4.99851052 Ry
     hartree contribution      =       1.12841220 Ry
     xc contribution           =      -8.60405373 Ry
     ewald contribution        =     -16.71620805 Ry

     convergence has been achieved in   6 iterations

     Writing output data file silicon.10.312.save

     init_run     :      0.41s CPU      0.71s WALL (       1 calls)
     electrons    :      1.55s CPU      2.20s WALL (       1 calls)

     Called by init_run:
     wfcinit      :      0.14s CPU      0.35s WALL (       1 calls)
     potinit      :      0.03s CPU      0.06s WALL (       1 calls)

     Called by electrons:
     c_bands      :      0.97s CPU      1.47s WALL (       7 calls)
     sum_band     :      0.34s CPU      0.39s WALL (       7 calls)
     v_of_rho     :      0.11s CPU      0.14s WALL (       7 calls)
     newd         :      0.17s CPU      0.27s WALL (       7 calls)
     mix_rho      :      0.01s CPU      0.01s WALL (       7 calls)

     Called by c_bands:
     init_us_2    :      0.05s CPU      0.06s WALL (     420 calls)
     cegterg      :      0.84s CPU      1.29s WALL (     196 calls)

     Called by sum_band:
     sum_band:bec :      0.00s CPU      0.00s WALL (     196 calls)
     addusdens    :      0.16s CPU      0.17s WALL (       7 calls)

     Called by *egterg:
     h_psi        :      0.75s CPU      1.23s WALL (     657 calls)
     s_psi        :      0.05s CPU      0.06s WALL (     657 calls)
     g_psi        :      0.00s CPU      0.00s WALL (     433 calls)
     cdiaghg      :      0.05s CPU      0.09s WALL (     601 calls)

     Called by h_psi:
     h_psi:pot    :      0.75s CPU      1.23s WALL (     657 calls)
     h_psi:calbec :      0.08s CPU      0.13s WALL (     657 calls)
     vloc_psi     :      0.61s CPU      1.04s WALL (     657 calls)
     add_vuspsi   :      0.05s CPU      0.06s WALL (     657 calls)

     General routines
     calbec       :      0.10s CPU      0.15s WALL (     853 calls)
     fft          :      0.09s CPU      0.14s WALL (     112 calls)
     ffts         :      0.00s CPU      0.00s WALL (      14 calls)
     fftw         :      0.62s CPU      1.05s WALL (    5724 calls)
     interpolate  :      0.01s CPU      0.01s WALL (      14 calls)
     davcio       :      0.00s CPU      0.00s WALL (      28 calls)

     Parallel routines
     fft_scatter  :      0.37s CPU      0.78s WALL (    5850 calls)

     PWSCF        :     2.16s CPU         3.15s WALL


   This run was terminated on:  10:31: 1  10Nov2017            

=------------------------------------------------------------------------------=
   JOB DONE.
=------------------------------------------------------------------------------=
