
     Program PWSCF v.6.1 (svn rev. 13369) starts on 10Nov2017 at 10:28:30 

     This program is part of the open-source Quantum ESPRESSO suite
     for quantum simulation of materials; please cite
         "P. Giannozzi et al., J. Phys.:Condens. Matter 21 395502 (2009);
          URL http://www.quantum-espresso.org", 
     in publications or presentations arising from this work. More details at
     http://www.quantum-espresso.org/quote

     Parallel version (MPI), running on     4 processors
     R & G space division:  proc/nbgrp/npool/nimage =       4
     Waiting for input...
     Reading input from standard input
     Message from routine read_cards :
     DEPRECATED: no units specified in ATOMIC_POSITIONS card
     Message from routine read_cards :
     ATOMIC_POSITIONS: units set to alat

     Current dimensions of program PWSCF are:
     Max number of different atomic species (ntypx) = 10
     Max number of k-points (npk) =  40000
     Max angular momentum in pseudopotentials (lmaxx) =  3

     Subspace diagonalization in iterative solution of the eigenvalue problem:
     a serial algorithm will be used


     Parallelization info
     --------------------
     sticks:   dense  smooth     PW     G-vecs:    dense   smooth      PW
     Min         214     108     37                 4215     1489     284
     Max         215     109     38                 4218     1492     285
     Sum         859     433    151                16865     5961    1139



     bravais-lattice index     =            2
     lattice parameter (alat)  =      10.2300  a.u.
     unit-cell volume          =     267.6498 (a.u.)^3
     number of atoms/cell      =            2
     number of atomic types    =            1
     number of electrons       =         8.00
     number of Kohn-Sham states=            4
     kinetic-energy cutoff     =      30.0000  Ry
     charge density cutoff     =     240.0000  Ry
     convergence threshold     =      1.0E-08
     mixing beta               =       0.7000
     number of iterations used =            8  plain     mixing
     Exchange-correlation      = SLA  PW   PBE  PBE ( 1  4  3  4 0 0)

     celldm(1)=  10.230000  celldm(2)=   0.000000  celldm(3)=   0.000000
     celldm(4)=   0.000000  celldm(5)=   0.000000  celldm(6)=   0.000000

     crystal axes: (cart. coord. in units of alat)
               a(1) = (  -0.500000   0.000000   0.500000 )  
               a(2) = (   0.000000   0.500000   0.500000 )  
               a(3) = (  -0.500000   0.500000   0.000000 )  

     reciprocal axes: (cart. coord. in units 2 pi/alat)
               b(1) = ( -1.000000 -1.000000  1.000000 )  
               b(2) = (  1.000000  1.000000  1.000000 )  
               b(3) = ( -1.000000  1.000000 -1.000000 )  


     PseudoPot. # 1 for Si read from file:
     /home/max/quantum_espresso/qe-6.1/pseudo/si_pbe_v1.uspp.F.UPF.txt
     MD5 check sum: a056efeee980c13900f22a371efd63c1
     Pseudo is Ultrasoft + core correction, Zval =  4.0
     Generated by new atomic code, or converted to UPF format
     Using radial grid of  899 points,  6 beta functions with: 
                l(1) =   0
                l(2) =   0
                l(3) =   1
                l(4) =   1
                l(5) =   2
                l(6) =   2
     Q(r) pseudized with  8 coefficients,  rinner =    0.900   0.900   0.900
                                                       0.900   0.900

     atomic species   valence    mass     pseudopotential
        Si             4.00    28.08600     Si( 1.00)

     48 Sym. Ops., with inversion, found (24 have fractional translation)



   Cartesian axes

     site n.     atom                  positions (alat units)
         1           Si  tau(   1) = (   0.0000000   0.0000000   0.0000000  )
         2           Si  tau(   2) = (   0.2500000   0.2500000   0.2500000  )

     number of k points=    28
                       cart. coord. in units 2pi/alat
        k(    1) = (  -0.0833333   0.0833333   0.0833333), wk =   0.0185185
        k(    2) = (  -0.2500000   0.2500000  -0.0833333), wk =   0.0555556
        k(    3) = (  -0.4166667   0.4166667  -0.2500000), wk =   0.0555556
        k(    4) = (   0.4166667  -0.4166667   0.5833333), wk =   0.0555556
        k(    5) = (   0.2500000  -0.2500000   0.4166667), wk =   0.0555556
        k(    6) = (   0.0833333  -0.0833333   0.2500000), wk =   0.0555556
        k(    7) = (  -0.0833333   0.4166667   0.0833333), wk =   0.0555556
        k(    8) = (  -0.2500000   0.5833333  -0.0833333), wk =   0.1111111
        k(    9) = (   0.5833333  -0.2500000   0.7500000), wk =   0.1111111
        k(   10) = (   0.4166667  -0.0833333   0.5833333), wk =   0.1111111
        k(   11) = (   0.2500000   0.0833333   0.4166667), wk =   0.1111111
        k(   12) = (  -0.0833333   0.7500000   0.0833333), wk =   0.0555556
        k(   13) = (   0.7500000  -0.0833333   0.9166667), wk =   0.1111111
        k(   14) = (   0.5833333   0.0833333   0.7500000), wk =   0.1111111
        k(   15) = (   0.4166667   0.2500000   0.5833333), wk =   0.1111111
        k(   16) = (  -0.0833333  -0.9166667   0.0833333), wk =   0.0555556
        k(   17) = (  -0.2500000  -0.7500000  -0.0833333), wk =   0.1111111
        k(   18) = (  -0.0833333  -0.5833333   0.0833333), wk =   0.0555556
        k(   19) = (  -0.2500000   0.2500000   0.2500000), wk =   0.0185185
        k(   20) = (  -0.4166667   0.4166667   0.0833333), wk =   0.0555556
        k(   21) = (   0.4166667  -0.4166667   0.9166667), wk =   0.0555556
        k(   22) = (   0.2500000  -0.2500000   0.7500000), wk =   0.0555556
        k(   23) = (  -0.2500000   0.5833333   0.2500000), wk =   0.0555556
        k(   24) = (   0.5833333  -0.2500000   1.0833333), wk =   0.1111111
        k(   25) = (   0.4166667  -0.0833333   0.9166667), wk =   0.1111111
        k(   26) = (  -0.2500000  -1.0833333   0.2500000), wk =   0.0555556
        k(   27) = (  -0.4166667   0.4166667   0.4166667), wk =   0.0185185
        k(   28) = (   0.4166667  -0.4166667   1.2500000), wk =   0.0555556

     Dense  grid:    16865 G-vectors     FFT dimensions: (  36,  36,  36)

     Smooth grid:     5961 G-vectors     FFT dimensions: (  25,  25,  25)

     Estimated max dynamical RAM per process >       3.00MB

     Estimated total allocated dynamical RAM >      12.00MB

     Initial potential from superposition of free atoms

     starting charge    7.99866, renormalised to    8.00000
     Starting wfc are    8 randomized atomic wfcs

     total cpu time spent up to now is        0.7 secs

     per-process dynamical memory:     9.9 Mb

     Self-consistent Calculation

     iteration #  1     ecut=    30.00 Ry     beta=0.70
     Davidson diagonalization with overlap
     ethr =  1.00E-02,  avg # of iterations =  2.0

     Threshold (ethr) on eigenvalues was too large:
     Diagonalizing with lowered threshold

     Davidson diagonalization with overlap
     ethr =  7.13E-04,  avg # of iterations =  1.0

     total cpu time spent up to now is        1.1 secs

     total energy              =     -19.19024599 Ry
     Harris-Foulkes estimate   =     -19.20394558 Ry
     estimated scf accuracy    <       0.05632029 Ry

     iteration #  2     ecut=    30.00 Ry     beta=0.70
     Davidson diagonalization with overlap
     ethr =  7.04E-04,  avg # of iterations =  1.0

     total cpu time spent up to now is        1.3 secs

     total energy              =     -19.19220447 Ry
     Harris-Foulkes estimate   =     -19.19237415 Ry
     estimated scf accuracy    <       0.00243989 Ry

     iteration #  3     ecut=    30.00 Ry     beta=0.70
     Davidson diagonalization with overlap
     ethr =  3.05E-05,  avg # of iterations =  2.0

     total cpu time spent up to now is        1.5 secs

     total energy              =     -19.19255928 Ry
     Harris-Foulkes estimate   =     -19.19257400 Ry
     estimated scf accuracy    <       0.00004679 Ry

     iteration #  4     ecut=    30.00 Ry     beta=0.70
     Davidson diagonalization with overlap
     ethr =  5.85E-07,  avg # of iterations =  3.3

     total cpu time spent up to now is        1.9 secs

     total energy              =     -19.19260155 Ry
     Harris-Foulkes estimate   =     -19.19260273 Ry
     estimated scf accuracy    <       0.00000406 Ry

     iteration #  5     ecut=    30.00 Ry     beta=0.70
     Davidson diagonalization with overlap
     ethr =  5.08E-08,  avg # of iterations =  2.0

     total cpu time spent up to now is        2.6 secs

     total energy              =     -19.19260209 Ry
     Harris-Foulkes estimate   =     -19.19260208 Ry
     estimated scf accuracy    <       0.00000001 Ry

     iteration #  6     ecut=    30.00 Ry     beta=0.70
     Davidson diagonalization with overlap
     ethr =  1.54E-10,  avg # of iterations =  4.0

     total cpu time spent up to now is        2.9 secs

     End of self-consistent calculation

          k =-0.0833 0.0833 0.0833 (   737 PWs)   bands (ev):

    -5.6408   5.4332   6.1468   6.1468

          k =-0.2500 0.2500-0.0833 (   750 PWs)   bands (ev):

    -5.1586   3.3416   4.8944   5.9365

          k =-0.4167 0.4167-0.2500 (   745 PWs)   bands (ev):

    -4.0520   0.5468   4.4300   5.2918

          k = 0.4167-0.4167 0.5833 (   747 PWs)   bands (ev):

    -3.3407  -0.6150   4.5004   4.9054

          k = 0.2500-0.2500 0.4167 (   750 PWs)   bands (ev):

    -4.4697   1.4039   4.9637   5.0059

          k = 0.0833-0.0833 0.2500 (   743 PWs)   bands (ev):

    -5.3974   4.3632   5.4902   5.6865

          k =-0.0833 0.4167 0.0833 (   743 PWs)   bands (ev):

    -4.9148   3.1647   4.7409   4.7506

          k =-0.2500 0.5833-0.0833 (   742 PWs)   bands (ev):

    -3.9932   1.3081   3.4013   4.3602

          k = 0.5833-0.2500 0.7500 (   740 PWs)   bands (ev):

    -2.8585  -0.4726   2.7973   4.1282

          k = 0.4167-0.0833 0.5833 (   747 PWs)   bands (ev):

    -3.5929   0.6041   2.7490   4.6235

          k = 0.2500 0.0833 0.4167 (   746 PWs)   bands (ev):

    -4.6865   2.3123   4.1081   5.3041

          k =-0.0833 0.7500 0.0833 (   742 PWs)   bands (ev):

    -3.2738   0.4812   3.3624   3.7099

          k = 0.7500-0.0833 0.9167 (   738 PWs)   bands (ev):

    -2.0616  -0.8733   2.5045   3.2946

          k = 0.5833 0.0833 0.7500 (   736 PWs)   bands (ev):

    -2.4336  -0.5413   2.0159   3.8482

          k = 0.4167 0.2500 0.5833 (   743 PWs)   bands (ev):

    -3.4777  -0.1014   3.7129   4.7236

          k =-0.0833-0.9167 0.0833 (   744 PWs)   bands (ev):

    -2.1564  -0.8823   3.0890   3.4922

          k =-0.2500-0.7500-0.0833 (   743 PWs)   bands (ev):

    -3.1022   0.2537   2.8340   3.6393

          k =-0.0833-0.5833 0.0833 (   737 PWs)   bands (ev):

    -4.2018   1.8592   3.9164   4.1369

          k =-0.2500 0.2500 0.2500 (   751 PWs)   bands (ev):

    -4.9263   2.3483   5.5262   5.5262

          k =-0.4167 0.4167 0.0833 (   746 PWs)   bands (ev):

    -4.2387   1.4157   3.3653   5.3562

          k = 0.4167-0.4167 0.9167 (   740 PWs)   bands (ev):

    -3.0428  -0.0357   2.2406   4.5577

          k = 0.2500-0.2500 0.7500 (   739 PWs)   bands (ev):

    -2.9908  -0.1155   2.7289   4.0684

          k =-0.2500 0.5833 0.2500 (   743 PWs)   bands (ev):

    -3.8090   0.5961   3.8447   4.4463

          k = 0.5833-0.2500 1.0833 (   737 PWs)   bands (ev):

    -2.7934  -0.1435   2.3409   3.6352

          k = 0.4167-0.0833 0.9167 (   740 PWs)   bands (ev):

    -1.9510  -0.8811   2.1692   2.9565

          k =-0.2500-1.0833 0.2500 (   737 PWs)   bands (ev):

    -2.1637  -0.7903   2.0413   3.8714

          k =-0.4167 0.4167 0.4167 (   757 PWs)   bands (ev):

    -3.7168  -0.2090   5.1348   5.1348

          k = 0.4167-0.4167 1.2500 (   745 PWs)   bands (ev):

    -3.1026  -0.5099   3.2809   4.6868

     highest occupied level (ev):     6.1468

!    total energy              =     -19.19260213 Ry
     Harris-Foulkes estimate   =     -19.19260213 Ry
     estimated scf accuracy    <          1.1E-09 Ry

     The total energy is the sum of the following terms:

     one-electron contribution =       5.18274739 Ry
     hartree contribution      =       1.10744277 Ry
     xc contribution           =      -8.63259313 Ry
     ewald contribution        =     -16.85019916 Ry

     convergence has been achieved in   6 iterations

     Writing output data file silicon.10.23.save

     init_run     :      0.39s CPU      0.49s WALL (       1 calls)
     electrons    :      1.52s CPU      2.21s WALL (       1 calls)

     Called by init_run:
     wfcinit      :      0.07s CPU      0.09s WALL (       1 calls)
     potinit      :      0.02s CPU      0.02s WALL (       1 calls)

     Called by electrons:
     c_bands      :      0.93s CPU      1.43s WALL (       7 calls)
     sum_band     :      0.33s CPU      0.43s WALL (       7 calls)
     v_of_rho     :      0.11s CPU      0.15s WALL (       7 calls)
     newd         :      0.16s CPU      0.20s WALL (       7 calls)
     mix_rho      :      0.01s CPU      0.02s WALL (       7 calls)

     Called by c_bands:
     init_us_2    :      0.05s CPU      0.06s WALL (     420 calls)
     cegterg      :      0.81s CPU      1.25s WALL (     196 calls)

     Called by sum_band:
     sum_band:bec :      0.00s CPU      0.00s WALL (     196 calls)
     addusdens    :      0.15s CPU      0.19s WALL (       7 calls)

     Called by *egterg:
     h_psi        :      0.68s CPU      1.02s WALL (     653 calls)
     s_psi        :      0.05s CPU      0.06s WALL (     653 calls)
     g_psi        :      0.00s CPU      0.00s WALL (     429 calls)
     cdiaghg      :      0.05s CPU      0.07s WALL (     597 calls)

     Called by h_psi:
     h_psi:pot    :      0.67s CPU      1.02s WALL (     653 calls)
     h_psi:calbec :      0.07s CPU      0.10s WALL (     653 calls)
     vloc_psi     :      0.55s CPU      0.85s WALL (     653 calls)
     add_vuspsi   :      0.05s CPU      0.06s WALL (     653 calls)

     General routines
     calbec       :      0.09s CPU      0.13s WALL (     849 calls)
     fft          :      0.09s CPU      0.14s WALL (     112 calls)
     ffts         :      0.00s CPU      0.00s WALL (      14 calls)
     fftw         :      0.56s CPU      0.88s WALL (    5710 calls)
     interpolate  :      0.01s CPU      0.01s WALL (      14 calls)
     davcio       :      0.00s CPU      0.00s WALL (      28 calls)

     Parallel routines
     fft_scatter  :      0.32s CPU      0.63s WALL (    5836 calls)

     PWSCF        :     2.14s CPU         3.01s WALL


   This run was terminated on:  10:28:33  10Nov2017            

=------------------------------------------------------------------------------=
   JOB DONE.
=------------------------------------------------------------------------------=
