
     Program PHONON v.6.1 (svn rev. 13369) starts on  9Nov2017 at 12:23:34 

     This program is part of the open-source Quantum ESPRESSO suite
     for quantum simulation of materials; please cite
         "P. Giannozzi et al., J. Phys.:Condens. Matter 21 395502 (2009);
          URL http://www.quantum-espresso.org", 
     in publications or presentations arising from this work. More details at
     http://www.quantum-espresso.org/quote

     Parallel version (MPI), running on     4 processors
     R & G space division:  proc/nbgrp/npool/nimage =       4

     Reading data from directory:
     ./silicon.10.333.save

   Info: using nr1, nr2, nr3 values from input

   Info: using nr1, nr2, nr3 values from input

     IMPORTANT: XC functional enforced from input :
     Exchange-correlation      = SLA  PW   PBE  PBE ( 1  4  3  4 0 0)
     Any further DFT definition will be discarded
     Please, verify this is what you really want


     Parallelization info
     --------------------
     sticks:   dense  smooth     PW     G-vecs:    dense   smooth      PW
     Min          63      63     22                  684      684     140
     Max          64      64     23                  688      688     141
     Sum         253     253     91                 2741     2741     561


     Check: negative/imaginary core charge=   -0.000005    0.000000


     Dynamical matrices for ( 4, 4, 4)  uniform grid of q-points
     (   8q-points):
       N         xq(1)         xq(2)         xq(3) 
       1   0.000000000   0.000000000   0.000000000
       2  -0.250000000   0.250000000  -0.250000000
       3   0.500000000  -0.500000000   0.500000000
       4   0.000000000   0.500000000   0.000000000
       5   0.750000000  -0.250000000   0.750000000
       6   0.500000000   0.000000000   0.500000000
       7   0.000000000  -1.000000000   0.000000000
       8  -0.500000000  -1.000000000   0.000000000

     Calculation of q =    0.0000000   0.0000000   0.0000000

                                                                                

     bravais-lattice index     =            2
     lattice parameter (alat)  =      10.3330  a.u.
     unit-cell volume          =     275.8159 (a.u.)^3
     number of atoms/cell      =            2
     number of atomic types    =            1
     kinetic-energy cut-off    =      18.0000  Ry
     charge density cut-off    =      72.0000  Ry
     convergence threshold     =      1.0E-12
     beta                      =       0.7000
     number of iterations used =            4
     Exchange-correlation      = SLA  PW   PBE  PBE ( 1  4  3  4 0 0)


     celldm(1)=   10.33300  celldm(2)=    0.00000  celldm(3)=    0.00000
     celldm(4)=    0.00000  celldm(5)=    0.00000  celldm(6)=    0.00000

     crystal axes: (cart. coord. in units of alat)
               a(1) = ( -0.5000  0.0000  0.5000 )  
               a(2) = (  0.0000  0.5000  0.5000 )  
               a(3) = ( -0.5000  0.5000  0.0000 )  

     reciprocal axes: (cart. coord. in units 2 pi/alat)
               b(1) = ( -1.0000 -1.0000  1.0000 )  
               b(2) = (  1.0000  1.0000  1.0000 )  
               b(3) = ( -1.0000  1.0000 -1.0000 )  


     Atoms inside the unit cell: 

     Cartesian axes

     site n.  atom      mass           positions (alat units)
        1     Si  28.0860   tau(    1) = (    0.00000    0.00000    0.00000  )
        2     Si  28.0860   tau(    2) = (    0.25000    0.25000    0.25000  )

     Computing dynamical matrix for 
                    q = (   0.0000000   0.0000000   0.0000000 )

     49 Sym.Ops. (with q -> -q+G )


     G cutoff =  194.7268  (    685 G-vectors)     FFT grid: ( 20, 20, 20)
     number of k points=    10

     PseudoPot. # 1 for Si read from file:
     /home/max/quantum_espresso/qe-6.1/pseudo/si_pbe_v1.uspp.F.UPF.txt
     MD5 check sum: a056efeee980c13900f22a371efd63c1
     Pseudo is Ultrasoft + core correction, Zval =  4.0
     Generated by new atomic code, or converted to UPF format
     Using radial grid of  899 points,  6 beta functions with: 
                l(1) =   0
                l(2) =   0
                l(3) =   1
                l(4) =   1
                l(5) =   2
                l(6) =   2
     Q(r) pseudized with  8 coefficients,  rinner =    0.900   0.900   0.900
                                                       0.900   0.900

     Mode symmetry, O_h (m-3m)  point group:


     Electric field:
     Dielectric constant
     Born effective charges in two ways 


     Atomic displacements:
     There are   2 irreducible representations

     Representation     1      3 modes -T_2g G_25' G_5+  To be done

     Representation     2      3 modes -T_1u G_15  G_4-  To be done



     Alpha used in Ewald sum =   0.7000
     PHONON       :     0.43s CPU         0.43s WALL


     Electric Fields Calculation

      iter #   1 total cpu time :     0.9 secs   av.it.:   5.6
      thresh= 1.000E-02 alpha_mix =  0.700 |ddv_scf|^2 =  9.058E-07

      iter #   2 total cpu time :     1.1 secs   av.it.:   9.9
      thresh= 9.517E-05 alpha_mix =  0.700 |ddv_scf|^2 =  5.577E-08

      iter #   3 total cpu time :     1.3 secs   av.it.:   9.8
      thresh= 2.362E-05 alpha_mix =  0.700 |ddv_scf|^2 =  4.234E-09

      iter #   4 total cpu time :     1.6 secs   av.it.:   9.0
      thresh= 6.507E-06 alpha_mix =  0.700 |ddv_scf|^2 =  2.499E-11

      iter #   5 total cpu time :     1.8 secs   av.it.:   9.2
      thresh= 4.999E-07 alpha_mix =  0.700 |ddv_scf|^2 =  1.329E-14

     End of electric fields calculation

          Dielectric constant in cartesian axis 

          (      13.870161431       0.000000000      -0.000000000 )
          (      -0.000000000      13.870161431       0.000000000 )
          (      -0.000000000       0.000000000      13.870161431 )

          Effective charges (d Force / dE) in cartesian axis

           atom      1   Si 
      Ex  (       -0.03114       -0.00000        0.00000 )
      Ey  (       -0.00000       -0.03114        0.00000 )
      Ez  (        0.00000        0.00000       -0.03114 )
           atom      2   Si 
      Ex  (       -0.03114       -0.00000       -0.00000 )
      Ey  (       -0.00000       -0.03114        0.00000 )
      Ez  (       -0.00000        0.00000       -0.03114 )


     Representation #  1 modes #   1  2  3

     Self-consistent Calculation

      iter #   1 total cpu time :     2.3 secs   av.it.:   4.9
      thresh= 1.000E-02 alpha_mix =  0.700 |ddv_scf|^2 =  2.253E-07

      iter #   2 total cpu time :     2.5 secs   av.it.:   9.8
      thresh= 4.746E-05 alpha_mix =  0.700 |ddv_scf|^2 =  1.396E-08

      iter #   3 total cpu time :     2.7 secs   av.it.:   9.3
      thresh= 1.181E-05 alpha_mix =  0.700 |ddv_scf|^2 =  8.600E-10

      iter #   4 total cpu time :     2.9 secs   av.it.:   9.0
      thresh= 2.933E-06 alpha_mix =  0.700 |ddv_scf|^2 =  1.890E-12

      iter #   5 total cpu time :     3.1 secs   av.it.:   9.5
      thresh= 1.375E-07 alpha_mix =  0.700 |ddv_scf|^2 =  1.230E-14

     End of self-consistent calculation

     Convergence has been achieved 


     Representation #  2 modes #   4  5  6

     Self-consistent Calculation

      iter #   1 total cpu time :     3.4 secs   av.it.:   5.0
      thresh= 1.000E-02 alpha_mix =  0.700 |ddv_scf|^2 =  1.708E-07

      iter #   2 total cpu time :     3.7 secs   av.it.:   9.6
      thresh= 4.133E-05 alpha_mix =  0.700 |ddv_scf|^2 =  1.333E-08

      iter #   3 total cpu time :     3.9 secs   av.it.:   9.3
      thresh= 1.155E-05 alpha_mix =  0.700 |ddv_scf|^2 =  8.491E-10

      iter #   4 total cpu time :     4.2 secs   av.it.:   9.5
      thresh= 2.914E-06 alpha_mix =  0.700 |ddv_scf|^2 =  5.087E-12

      iter #   5 total cpu time :     4.4 secs   av.it.:   9.0
      thresh= 2.255E-07 alpha_mix =  0.700 |ddv_scf|^2 =  4.431E-15

     End of self-consistent calculation

     Convergence has been achieved 

     Number of q in the star =    1
     List of q in the star:
          1   0.000000000   0.000000000   0.000000000

          Dielectric constant in cartesian axis 

          (      13.870161431       0.000000000      -0.000000000 )
          (      -0.000000000      13.870161431       0.000000000 )
          (      -0.000000000       0.000000000      13.870161431 )

          Effective charges (d Force / dE) in cartesian axis

           atom      1   Si 
      Ex  (       -0.03114       -0.00000        0.00000 )
      Ey  (       -0.00000       -0.03114        0.00000 )
      Ez  (        0.00000        0.00000       -0.03114 )
           atom      2   Si 
      Ex  (       -0.03114       -0.00000       -0.00000 )
      Ey  (       -0.00000       -0.03114        0.00000 )
      Ez  (       -0.00000        0.00000       -0.03114 )

          Effective charges (d P / du) in cartesian axis 

           atom      1   Si 
      Px  (       -0.07252       -0.00000        0.00000 )
      Py  (       -0.00000       -0.07252       -0.00000 )
      Pz  (        0.00000       -0.00000       -0.07252 )
           atom      2   Si 
      Px  (       -0.07252       -0.00000       -0.00000 )
      Py  (       -0.00000       -0.07252        0.00000 )
      Pz  (       -0.00000        0.00000       -0.07252 )

     Diagonalizing the dynamical matrix

     q = (    0.000000000   0.000000000   0.000000000 ) 

 **************************************************************************
     freq (    1) =       1.948008 [THz] =      64.978543 [cm-1]
     freq (    2) =       1.948008 [THz] =      64.978543 [cm-1]
     freq (    3) =       1.948008 [THz] =      64.978543 [cm-1]
     freq (    4) =      15.013089 [THz] =     500.782732 [cm-1]
     freq (    5) =      15.013089 [THz] =     500.782732 [cm-1]
     freq (    6) =      15.013089 [THz] =     500.782732 [cm-1]
 **************************************************************************

     Mode symmetry, O_h (m-3m)  point group:

     freq (  1 -  3) =         65.0  [cm-1]   --> T_1u G_15  G_4- I  
     freq (  4 -  6) =        500.8  [cm-1]   --> T_2g G_25' G_5+ R  

     Calculation of q =   -0.2500000   0.2500000  -0.2500000

   Info: using nr1, nr2, nr3 values from input

   Info: using nr1, nr2, nr3 values from input

     Parallelization info
     --------------------
     sticks:   dense  smooth     PW     G-vecs:    dense   smooth      PW
     Min          63      63     24                  684      684     161
     Max          64      64     25                  688      688     162
     Sum         253     253     97                 2741     2741     645



     bravais-lattice index     =            2
     lattice parameter (alat)  =      10.3330  a.u.
     unit-cell volume          =     275.8159 (a.u.)^3
     number of atoms/cell      =            2
     number of atomic types    =            1
     number of electrons       =         8.00
     number of Kohn-Sham states=            4
     kinetic-energy cutoff     =      18.0000  Ry
     charge density cutoff     =      72.0000  Ry
     Exchange-correlation      = SLA  PW   PBE  PBE ( 1  4  3  4 0 0)

     celldm(1)=  10.333000  celldm(2)=   0.000000  celldm(3)=   0.000000
     celldm(4)=   0.000000  celldm(5)=   0.000000  celldm(6)=   0.000000

     crystal axes: (cart. coord. in units of alat)
               a(1) = (  -0.500000   0.000000   0.500000 )  
               a(2) = (   0.000000   0.500000   0.500000 )  
               a(3) = (  -0.500000   0.500000   0.000000 )  

     reciprocal axes: (cart. coord. in units 2 pi/alat)
               b(1) = ( -1.000000 -1.000000  1.000000 )  
               b(2) = (  1.000000  1.000000  1.000000 )  
               b(3) = ( -1.000000  1.000000 -1.000000 )  


     PseudoPot. # 1 for Si read from file:
     /home/max/quantum_espresso/qe-6.1/pseudo/si_pbe_v1.uspp.F.UPF.txt
     MD5 check sum: a056efeee980c13900f22a371efd63c1
     Pseudo is Ultrasoft + core correction, Zval =  4.0
     Generated by new atomic code, or converted to UPF format
     Using radial grid of  899 points,  6 beta functions with: 
                l(1) =   0
                l(2) =   0
                l(3) =   1
                l(4) =   1
                l(5) =   2
                l(6) =   2
     Q(r) pseudized with  8 coefficients,  rinner =    0.900   0.900   0.900
                                                       0.900   0.900

     atomic species   valence    mass     pseudopotential
        Si             4.00    28.08600     Si( 1.00)

     48 Sym. Ops., with inversion, found



   Cartesian axes

     site n.     atom                  positions (alat units)
         1           Si  tau(   1) = (   0.0000000   0.0000000   0.0000000  )
         2           Si  tau(   2) = (   0.2500000   0.2500000   0.2500000  )

     number of k points=   120

     Number of k-points >= 100: set verbosity='high' to print them.

     Dense  grid:     2741 G-vectors     FFT dimensions: (  20,  20,  20)

     Estimated max dynamical RAM per process >       0.33MB

     Estimated total allocated dynamical RAM >       1.31MB

     Check: negative/imaginary core charge=   -0.000005    0.000000

     The potential is recalculated from file :
     ./_ph0/silicon.10.333.save/charge-density.dat

     Starting wfc are    8 atomic wfcs

     Band Structure Calculation
     Davidson diagonalization with overlap

     ethr =  1.25E-10,  avg # of iterations = 11.7

     total cpu time spent up to now is        1.0 secs

     End of band structure calculation

     Number of k-points >= 100: set verbosity='high' to print the bands.

     highest occupied level (ev):     5.7016

     Writing output data file silicon.10.333.save

                                                                                

     bravais-lattice index     =            2
     lattice parameter (alat)  =      10.3330  a.u.
     unit-cell volume          =     275.8159 (a.u.)^3
     number of atoms/cell      =            2
     number of atomic types    =            1
     kinetic-energy cut-off    =      18.0000  Ry
     charge density cut-off    =      72.0000  Ry
     convergence threshold     =      1.0E-12
     beta                      =       0.7000
     number of iterations used =            4
     Exchange-correlation      = SLA  PW   PBE  PBE ( 1  4  3  4 0 0)


     celldm(1)=   10.33300  celldm(2)=    0.00000  celldm(3)=    0.00000
     celldm(4)=    0.00000  celldm(5)=    0.00000  celldm(6)=    0.00000

     crystal axes: (cart. coord. in units of alat)
               a(1) = ( -0.5000  0.0000  0.5000 )  
               a(2) = (  0.0000  0.5000  0.5000 )  
               a(3) = ( -0.5000  0.5000  0.0000 )  

     reciprocal axes: (cart. coord. in units 2 pi/alat)
               b(1) = ( -1.0000 -1.0000  1.0000 )  
               b(2) = (  1.0000  1.0000  1.0000 )  
               b(3) = ( -1.0000  1.0000 -1.0000 )  


     Atoms inside the unit cell: 

     Cartesian axes

     site n.  atom      mass           positions (alat units)
        1     Si  28.0860   tau(    1) = (    0.00000    0.00000    0.00000  )
        2     Si  28.0860   tau(    2) = (    0.25000    0.25000    0.25000  )

     Computing dynamical matrix for 
                    q = (  -0.2500000   0.2500000  -0.2500000 )

      6 Sym.Ops. (no q -> -q+G )


     G cutoff =  194.7268  (    685 G-vectors)     FFT grid: ( 20, 20, 20)
     number of k points=   120

     PseudoPot. # 1 for Si read from file:
     /home/max/quantum_espresso/qe-6.1/pseudo/si_pbe_v1.uspp.F.UPF.txt
     MD5 check sum: a056efeee980c13900f22a371efd63c1
     Pseudo is Ultrasoft + core correction, Zval =  4.0
     Generated by new atomic code, or converted to UPF format
     Using radial grid of  899 points,  6 beta functions with: 
                l(1) =   0
                l(2) =   0
                l(3) =   1
                l(4) =   1
                l(5) =   2
                l(6) =   2
     Q(r) pseudized with  8 coefficients,  rinner =    0.900   0.900   0.900
                                                       0.900   0.900

     Mode symmetry, C_3v (3m)   point group:


     Atomic displacements:
     There are   4 irreducible representations

     Representation     1      1 modes -A_1  L_1  To be done

     Representation     2      1 modes -A_1  L_1  To be done

     Representation     3      2 modes -E    L_3  To be done

     Representation     4      2 modes -E    L_3  To be done



     Alpha used in Ewald sum =   0.7000
     PHONON       :     5.49s CPU         5.90s WALL



     Representation #  1 mode #   1

     Self-consistent Calculation

      iter #   1 total cpu time :     6.2 secs   av.it.:   5.5
      thresh= 1.000E-02 alpha_mix =  0.700 |ddv_scf|^2 =  2.471E-03

      iter #   2 total cpu time :     6.4 secs   av.it.:   7.5
      thresh= 4.971E-03 alpha_mix =  0.700 |ddv_scf|^2 =  3.729E-02

      iter #   3 total cpu time :     6.7 secs   av.it.:   6.3
      thresh= 1.000E-02 alpha_mix =  0.700 |ddv_scf|^2 =  1.716E-06

      iter #   4 total cpu time :     7.0 secs   av.it.:   8.2
      thresh= 1.310E-04 alpha_mix =  0.700 |ddv_scf|^2 =  1.144E-07

      iter #   5 total cpu time :     7.3 secs   av.it.:   8.1
      thresh= 3.382E-05 alpha_mix =  0.700 |ddv_scf|^2 =  4.426E-09

      iter #   6 total cpu time :     7.8 secs   av.it.:   8.0
      thresh= 6.653E-06 alpha_mix =  0.700 |ddv_scf|^2 =  5.784E-09

      iter #   7 total cpu time :     8.0 secs   av.it.:   6.0
      thresh= 7.605E-06 alpha_mix =  0.700 |ddv_scf|^2 =  3.637E-10

      iter #   8 total cpu time :     8.3 secs   av.it.:   7.4
      thresh= 1.907E-06 alpha_mix =  0.700 |ddv_scf|^2 =  3.503E-12

      iter #   9 total cpu time :     8.6 secs   av.it.:   7.2
      thresh= 1.872E-07 alpha_mix =  0.700 |ddv_scf|^2 =  1.225E-13

     End of self-consistent calculation

     Convergence has been achieved 


     Representation #  2 mode #   2

     Self-consistent Calculation

      iter #   1 total cpu time :     8.8 secs   av.it.:   5.5
      thresh= 1.000E-02 alpha_mix =  0.700 |ddv_scf|^2 =  2.471E-03

      iter #   2 total cpu time :     9.1 secs   av.it.:   7.5
      thresh= 4.971E-03 alpha_mix =  0.700 |ddv_scf|^2 =  3.729E-02

      iter #   3 total cpu time :     9.5 secs   av.it.:   6.3
      thresh= 1.000E-02 alpha_mix =  0.700 |ddv_scf|^2 =  1.716E-06

      iter #   4 total cpu time :     9.8 secs   av.it.:   8.2
      thresh= 1.310E-04 alpha_mix =  0.700 |ddv_scf|^2 =  1.144E-07

      iter #   5 total cpu time :    10.1 secs   av.it.:   8.1
      thresh= 3.382E-05 alpha_mix =  0.700 |ddv_scf|^2 =  4.426E-09

      iter #   6 total cpu time :    10.4 secs   av.it.:   8.0
      thresh= 6.653E-06 alpha_mix =  0.700 |ddv_scf|^2 =  5.784E-09

      iter #   7 total cpu time :    10.7 secs   av.it.:   6.0
      thresh= 7.605E-06 alpha_mix =  0.700 |ddv_scf|^2 =  3.637E-10

      iter #   8 total cpu time :    11.0 secs   av.it.:   7.4
      thresh= 1.907E-06 alpha_mix =  0.700 |ddv_scf|^2 =  3.503E-12

      iter #   9 total cpu time :    11.2 secs   av.it.:   7.2
      thresh= 1.872E-07 alpha_mix =  0.700 |ddv_scf|^2 =  1.225E-13

     End of self-consistent calculation

     Convergence has been achieved 


     Representation #  3 modes #   3  4

     Self-consistent Calculation

      iter #   1 total cpu time :    11.9 secs   av.it.:   4.9
      thresh= 1.000E-02 alpha_mix =  0.700 |ddv_scf|^2 =  5.566E-07

      iter #   2 total cpu time :    12.5 secs   av.it.:   9.5
      thresh= 7.460E-05 alpha_mix =  0.700 |ddv_scf|^2 =  4.110E-08

      iter #   3 total cpu time :    13.2 secs   av.it.:   9.2
      thresh= 2.027E-05 alpha_mix =  0.700 |ddv_scf|^2 =  3.531E-09

      iter #   4 total cpu time :    14.0 secs   av.it.:   9.0
      thresh= 5.942E-06 alpha_mix =  0.700 |ddv_scf|^2 =  1.085E-11

      iter #   5 total cpu time :    14.7 secs   av.it.:   9.2
      thresh= 3.295E-07 alpha_mix =  0.700 |ddv_scf|^2 =  4.940E-13

     End of self-consistent calculation

     Convergence has been achieved 


     Representation #  4 modes #   5  6

     Self-consistent Calculation

      iter #   1 total cpu time :    15.2 secs   av.it.:   5.0
      thresh= 1.000E-02 alpha_mix =  0.700 |ddv_scf|^2 =  5.565E-07

      iter #   2 total cpu time :    16.0 secs   av.it.:   9.7
      thresh= 7.460E-05 alpha_mix =  0.700 |ddv_scf|^2 =  4.106E-08

      iter #   3 total cpu time :    16.7 secs   av.it.:   9.4
      thresh= 2.026E-05 alpha_mix =  0.700 |ddv_scf|^2 =  3.528E-09

      iter #   4 total cpu time :    17.5 secs   av.it.:   9.1
      thresh= 5.940E-06 alpha_mix =  0.700 |ddv_scf|^2 =  1.086E-11

      iter #   5 total cpu time :    18.2 secs   av.it.:   9.3
      thresh= 3.295E-07 alpha_mix =  0.700 |ddv_scf|^2 =  4.943E-13

     End of self-consistent calculation

     Convergence has been achieved 

     Number of q in the star =    8
     List of q in the star:
          1  -0.250000000   0.250000000  -0.250000000
          2   0.250000000  -0.250000000  -0.250000000
          3   0.250000000  -0.250000000   0.250000000
          4   0.250000000   0.250000000   0.250000000
          5  -0.250000000  -0.250000000  -0.250000000
          6  -0.250000000  -0.250000000   0.250000000
          7  -0.250000000   0.250000000   0.250000000
          8   0.250000000   0.250000000  -0.250000000

     Diagonalizing the dynamical matrix

     q = (   -0.250000000   0.250000000  -0.250000000 ) 

 **************************************************************************
     freq (    1) =       3.392336 [THz] =     113.156141 [cm-1]
     freq (    2) =       3.392336 [THz] =     113.156141 [cm-1]
     freq (    3) =       6.936420 [THz] =     231.374052 [cm-1]
     freq (    4) =      14.087273 [THz] =     469.900853 [cm-1]
     freq (    5) =      14.398711 [THz] =     480.289292 [cm-1]
     freq (    6) =      14.398711 [THz] =     480.289292 [cm-1]
 **************************************************************************

     Mode symmetry, C_3v (3m)   point group:

     freq (  1 -  2) =        113.2  [cm-1]   --> E    L_3           
     freq (  3 -  3) =        231.4  [cm-1]   --> A_1  L_1           
     freq (  4 -  4) =        469.9  [cm-1]   --> A_1  L_1           
     freq (  5 -  6) =        480.3  [cm-1]   --> E    L_3           

     Calculation of q =    0.5000000  -0.5000000   0.5000000

   Info: using nr1, nr2, nr3 values from input

   Info: using nr1, nr2, nr3 values from input

     Parallelization info
     --------------------
     sticks:   dense  smooth     PW     G-vecs:    dense   smooth      PW
     Min          63      63     27                  684      684     186
     Max          64      64     28                  688      688     189
     Sum         253     253    109                 2741     2741     749



     bravais-lattice index     =            2
     lattice parameter (alat)  =      10.3330  a.u.
     unit-cell volume          =     275.8159 (a.u.)^3
     number of atoms/cell      =            2
     number of atomic types    =            1
     number of electrons       =         8.00
     number of Kohn-Sham states=            4
     kinetic-energy cutoff     =      18.0000  Ry
     charge density cutoff     =      72.0000  Ry
     Exchange-correlation      = SLA  PW   PBE  PBE ( 1  4  3  4 0 0)

     celldm(1)=  10.333000  celldm(2)=   0.000000  celldm(3)=   0.000000
     celldm(4)=   0.000000  celldm(5)=   0.000000  celldm(6)=   0.000000

     crystal axes: (cart. coord. in units of alat)
               a(1) = (  -0.500000   0.000000   0.500000 )  
               a(2) = (   0.000000   0.500000   0.500000 )  
               a(3) = (  -0.500000   0.500000   0.000000 )  

     reciprocal axes: (cart. coord. in units 2 pi/alat)
               b(1) = ( -1.000000 -1.000000  1.000000 )  
               b(2) = (  1.000000  1.000000  1.000000 )  
               b(3) = ( -1.000000  1.000000 -1.000000 )  


     PseudoPot. # 1 for Si read from file:
     /home/max/quantum_espresso/qe-6.1/pseudo/si_pbe_v1.uspp.F.UPF.txt
     MD5 check sum: a056efeee980c13900f22a371efd63c1
     Pseudo is Ultrasoft + core correction, Zval =  4.0
     Generated by new atomic code, or converted to UPF format
     Using radial grid of  899 points,  6 beta functions with: 
                l(1) =   0
                l(2) =   0
                l(3) =   1
                l(4) =   1
                l(5) =   2
                l(6) =   2
     Q(r) pseudized with  8 coefficients,  rinner =    0.900   0.900   0.900
                                                       0.900   0.900

     atomic species   valence    mass     pseudopotential
        Si             4.00    28.08600     Si( 1.00)

     48 Sym. Ops., with inversion, found



   Cartesian axes

     site n.     atom                  positions (alat units)
         1           Si  tau(   1) = (   0.0000000   0.0000000   0.0000000  )
         2           Si  tau(   2) = (   0.2500000   0.2500000   0.2500000  )

     number of k points=    60
                       cart. coord. in units 2pi/alat
        k(    1) = (  -0.1250000   0.1250000   0.1250000), wk =   0.0468750
        k(    2) = (   0.3750000  -0.3750000   0.6250000), wk =   0.0000000
        k(    3) = (  -0.3750000   0.3750000  -0.1250000), wk =   0.0468750
        k(    4) = (   0.1250000  -0.1250000   0.3750000), wk =   0.0000000
        k(    5) = (   0.3750000  -0.3750000   0.6250000), wk =   0.0468750
        k(    6) = (   0.8750000  -0.8750000   1.1250000), wk =   0.0000000
        k(    7) = (   0.1250000  -0.1250000   0.3750000), wk =   0.0468750
        k(    8) = (   0.6250000  -0.6250000   0.8750000), wk =   0.0000000
        k(    9) = (  -0.1250000   0.6250000   0.1250000), wk =   0.0937500
        k(   10) = (   0.3750000   0.1250000   0.6250000), wk =   0.0000000
        k(   11) = (   0.6250000  -0.1250000   0.8750000), wk =   0.0937500
        k(   12) = (   1.1250000  -0.6250000   1.3750000), wk =   0.0000000
        k(   13) = (   0.3750000   0.1250000   0.6250000), wk =   0.0937500
        k(   14) = (   0.8750000  -0.3750000   1.1250000), wk =   0.0000000
        k(   15) = (  -0.1250000  -0.8750000   0.1250000), wk =   0.0937500
        k(   16) = (   0.3750000  -1.3750000   0.6250000), wk =   0.0000000
        k(   17) = (  -0.3750000   0.3750000   0.3750000), wk =   0.0468750
        k(   18) = (   0.1250000  -0.1250000   0.8750000), wk =   0.0000000
        k(   19) = (   0.3750000  -0.3750000   1.1250000), wk =   0.0468750
        k(   20) = (   0.8750000  -0.8750000   1.6250000), wk =   0.0000000
        k(   21) = (   0.1250000  -0.1250000   0.1250000), wk =   0.0156250
        k(   22) = (   0.6250000  -0.6250000   0.6250000), wk =   0.0000000
        k(   23) = (  -0.3750000  -0.3750000  -0.1250000), wk =   0.0937500
        k(   24) = (   0.1250000  -0.8750000   0.3750000), wk =   0.0000000
        k(   25) = (  -0.1250000  -0.3750000   0.3750000), wk =   0.0468750
        k(   26) = (   0.3750000  -0.8750000   0.8750000), wk =   0.0000000
        k(   27) = (   0.3750000   0.3750000   0.6250000), wk =   0.0937500
        k(   28) = (   0.8750000  -0.1250000   1.1250000), wk =   0.0000000
        k(   29) = (   0.6250000   0.3750000  -0.3750000), wk =   0.0468750
        k(   30) = (   1.1250000  -0.1250000   0.1250000), wk =   0.0000000
        k(   31) = (   0.1250000   0.1250000   0.3750000), wk =   0.0937500
        k(   32) = (   0.6250000  -0.3750000   0.8750000), wk =   0.0000000
        k(   33) = (   0.3750000   0.1250000  -0.1250000), wk =   0.0468750
        k(   34) = (   0.8750000  -0.3750000   0.3750000), wk =   0.0000000
        k(   35) = (  -0.1250000  -0.6250000  -0.1250000), wk =   0.0468750
        k(   36) = (   0.3750000  -1.1250000   0.3750000), wk =   0.0000000
        k(   37) = (   0.1250000  -0.6250000   0.1250000), wk =   0.0468750
        k(   38) = (   0.6250000  -1.1250000   0.6250000), wk =   0.0000000
        k(   39) = (   0.6250000   0.1250000   0.8750000), wk =   0.0937500
        k(   40) = (   1.1250000  -0.3750000   1.3750000), wk =   0.0000000
        k(   41) = (  -0.8750000   0.1250000   0.6250000), wk =   0.0937500
        k(   42) = (  -0.3750000  -0.3750000   1.1250000), wk =   0.0000000
        k(   43) = (   0.8750000   0.1250000  -0.6250000), wk =   0.0937500
        k(   44) = (   1.3750000  -0.3750000  -0.1250000), wk =   0.0000000
        k(   45) = (   0.3750000  -0.1250000   0.6250000), wk =   0.0937500
        k(   46) = (   0.8750000  -0.6250000   1.1250000), wk =   0.0000000
        k(   47) = (  -0.6250000  -0.1250000   0.3750000), wk =   0.0937500
        k(   48) = (  -0.1250000  -0.6250000   0.8750000), wk =   0.0000000
        k(   49) = (   0.6250000  -0.1250000  -0.3750000), wk =   0.0937500
        k(   50) = (   1.1250000  -0.6250000   0.1250000), wk =   0.0000000
        k(   51) = (  -0.1250000   0.8750000  -0.1250000), wk =   0.0468750
        k(   52) = (   0.3750000   0.3750000   0.3750000), wk =   0.0000000
        k(   53) = (   0.1250000   0.8750000   0.1250000), wk =   0.0468750
        k(   54) = (   0.6250000   0.3750000   0.6250000), wk =   0.0000000
        k(   55) = (   0.3750000  -0.3750000   0.3750000), wk =   0.0156250
        k(   56) = (   0.8750000  -0.8750000   0.8750000), wk =   0.0000000
        k(   57) = (   0.3750000   0.3750000   1.1250000), wk =   0.0937500
        k(   58) = (   0.8750000  -0.1250000   1.6250000), wk =   0.0000000
        k(   59) = (   1.1250000   0.3750000  -0.3750000), wk =   0.0468750
        k(   60) = (   1.6250000  -0.1250000   0.1250000), wk =   0.0000000

     Dense  grid:     2741 G-vectors     FFT dimensions: (  20,  20,  20)

     Estimated max dynamical RAM per process >       0.33MB

     Estimated total allocated dynamical RAM >       1.31MB

     Check: negative/imaginary core charge=   -0.000005    0.000000

     The potential is recalculated from file :
     ./_ph0/silicon.10.333.save/charge-density.dat

     Starting wfc are    8 atomic wfcs

     Band Structure Calculation
     Davidson diagonalization with overlap

     ethr =  1.25E-10,  avg # of iterations = 11.7

     total cpu time spent up to now is        1.6 secs

     End of band structure calculation

          k =-0.1250 0.1250 0.1250 (   338 PWs)   bands (ev):

    -5.6300   4.3929   5.7016   5.7016

          k = 0.3750-0.3750 0.6250 (   361 PWs)   bands (ev):

    -3.4707  -0.6724   3.7390   4.4497

          k =-0.3750 0.3750-0.1250 (   352 PWs)   bands (ev):

    -4.6061   1.4003   3.7206   5.2197

          k = 0.1250-0.1250 0.3750 (   353 PWs)   bands (ev):

    -5.1037   2.7743   4.6946   4.7583

          k = 0.3750-0.3750 0.6250 (   361 PWs)   bands (ev):

    -3.4707  -0.6724   3.7390   4.4497

          k = 0.8750-0.8750 1.1250 (   338 PWs)   bands (ev):

    -5.6300   4.3929   5.7016   5.7016

          k = 0.1250-0.1250 0.3750 (   353 PWs)   bands (ev):

    -5.1037   2.7743   4.6946   4.7583

          k = 0.6250-0.6250 0.8750 (   352 PWs)   bands (ev):

    -4.6061   1.4003   3.7206   5.2197

          k =-0.1250 0.6250 0.1250 (   351 PWs)   bands (ev):

    -4.0743   1.0620   3.3731   3.8214

          k = 0.3750 0.1250 0.6250 (   357 PWs)   bands (ev):

    -3.6604   0.1926   2.7333   4.0970

          k = 0.6250-0.1250 0.8750 (   361 PWs)   bands (ev):

    -2.4388  -0.8990   2.0249   3.0962

          k = 1.1250-0.6250 1.3750 (   352 PWs)   bands (ev):

    -4.6061   1.4003   3.7206   5.2197

          k = 0.3750 0.1250 0.6250 (   357 PWs)   bands (ev):

    -3.6604   0.1926   2.7333   4.0970

          k = 0.8750-0.3750 1.1250 (   351 PWs)   bands (ev):

    -4.0743   1.0620   3.3731   3.8214

          k =-0.1250-0.8750 0.1250 (   358 PWs)   bands (ev):

    -2.6052  -0.8019   2.6310   3.3549

          k = 0.3750-1.3750 0.6250 (   361 PWs)   bands (ev):

    -3.4707  -0.6724   3.7390   4.4497

          k =-0.3750 0.3750 0.3750 (   353 PWs)   bands (ev):

    -4.1750   0.1147   4.9135   4.9135

          k = 0.1250-0.1250 0.8750 (   358 PWs)   bands (ev):

    -2.6052  -0.8019   2.6310   3.3549

          k = 0.3750-0.3750 1.1250 (   361 PWs)   bands (ev):

    -2.9755  -0.5927   2.0818   4.1339

          k = 0.8750-0.8750 1.6250 (   351 PWs)   bands (ev):

    -4.0743   1.0620   3.3731   3.8214

          k = 0.1250-0.1250 0.1250 (   338 PWs)   bands (ev):

    -5.6300   4.3929   5.7016   5.7016

          k = 0.6250-0.6250 0.6250 (   353 PWs)   bands (ev):

    -4.1750   0.1147   4.9135   4.9135

          k =-0.3750-0.3750-0.1250 (   352 PWs)   bands (ev):

    -4.6061   1.4003   3.7206   5.2197

          k = 0.1250-0.8750 0.3750 (   361 PWs)   bands (ev):

    -2.4388  -0.8990   2.0249   3.0962

          k =-0.1250-0.3750 0.3750 (   352 PWs)   bands (ev):

    -4.6061   1.4003   3.7206   5.2197

          k = 0.3750-0.8750 0.8750 (   351 PWs)   bands (ev):

    -4.0743   1.0620   3.3731   3.8214

          k = 0.3750 0.3750 0.6250 (   361 PWs)   bands (ev):

    -3.4707  -0.6724   3.7390   4.4497

          k = 0.8750-0.1250 1.1250 (   358 PWs)   bands (ev):

    -2.6052  -0.8019   2.6310   3.3549

          k = 0.6250 0.3750-0.3750 (   361 PWs)   bands (ev):

    -3.4707  -0.6724   3.7390   4.4497

          k = 1.1250-0.1250 0.1250 (   358 PWs)   bands (ev):

    -2.6052  -0.8019   2.6310   3.3549

          k = 0.1250 0.1250 0.3750 (   353 PWs)   bands (ev):

    -5.1037   2.7743   4.6946   4.7583

          k = 0.6250-0.3750 0.8750 (   357 PWs)   bands (ev):

    -3.6604   0.1926   2.7333   4.0970

          k = 0.3750 0.1250-0.1250 (   353 PWs)   bands (ev):

    -5.1037   2.7743   4.6946   4.7583

          k = 0.8750-0.3750 0.3750 (   361 PWs)   bands (ev):

    -2.9755  -0.5927   2.0818   4.1339

          k =-0.1250-0.6250-0.1250 (   351 PWs)   bands (ev):

    -4.0743   1.0620   3.3731   3.8214

          k = 0.3750-1.1250 0.3750 (   361 PWs)   bands (ev):

    -2.9755  -0.5927   2.0818   4.1339

          k = 0.1250-0.6250 0.1250 (   351 PWs)   bands (ev):

    -4.0743   1.0620   3.3731   3.8214

          k = 0.6250-1.1250 0.6250 (   352 PWs)   bands (ev):

    -4.6061   1.4003   3.7206   5.2197

          k = 0.6250 0.1250 0.8750 (   361 PWs)   bands (ev):

    -2.4388  -0.8990   2.0249   3.0962

          k = 1.1250-0.3750 1.3750 (   357 PWs)   bands (ev):

    -3.6604   0.1926   2.7333   4.0970

          k =-0.8750 0.1250 0.6250 (   361 PWs)   bands (ev):

    -2.4388  -0.8990   2.0249   3.0962

          k =-0.3750-0.3750 1.1250 (   361 PWs)   bands (ev):

    -2.9755  -0.5927   2.0818   4.1339

          k = 0.8750 0.1250-0.6250 (   361 PWs)   bands (ev):

    -2.4388  -0.8990   2.0249   3.0962

          k = 1.3750-0.3750-0.1250 (   357 PWs)   bands (ev):

    -3.6604   0.1926   2.7333   4.0970

          k = 0.3750-0.1250 0.6250 (   357 PWs)   bands (ev):

    -3.6604   0.1926   2.7333   4.0970

          k = 0.8750-0.6250 1.1250 (   353 PWs)   bands (ev):

    -5.1037   2.7743   4.6946   4.7583

          k =-0.6250-0.1250 0.3750 (   357 PWs)   bands (ev):

    -3.6604   0.1926   2.7333   4.0970

          k =-0.1250-0.6250 0.8750 (   361 PWs)   bands (ev):

    -2.4388  -0.8990   2.0249   3.0962

          k = 0.6250-0.1250-0.3750 (   357 PWs)   bands (ev):

    -3.6604   0.1926   2.7333   4.0970

          k = 1.1250-0.6250 0.1250 (   361 PWs)   bands (ev):

    -2.4388  -0.8990   2.0249   3.0962

          k =-0.1250 0.8750-0.1250 (   358 PWs)   bands (ev):

    -2.6052  -0.8019   2.6310   3.3549

          k = 0.3750 0.3750 0.3750 (   353 PWs)   bands (ev):

    -4.1750   0.1147   4.9135   4.9135

          k = 0.1250 0.8750 0.1250 (   358 PWs)   bands (ev):

    -2.6052  -0.8019   2.6310   3.3549

          k = 0.6250 0.3750 0.6250 (   361 PWs)   bands (ev):

    -3.4707  -0.6724   3.7390   4.4497

          k = 0.3750-0.3750 0.3750 (   353 PWs)   bands (ev):

    -4.1750   0.1147   4.9135   4.9135

          k = 0.8750-0.8750 0.8750 (   338 PWs)   bands (ev):

    -5.6300   4.3929   5.7016   5.7016

          k = 0.3750 0.3750 1.1250 (   361 PWs)   bands (ev):

    -2.9755  -0.5927   2.0818   4.1339

          k = 0.8750-0.1250 1.6250 (   361 PWs)   bands (ev):

    -2.4388  -0.8990   2.0249   3.0962

          k = 1.1250 0.3750-0.3750 (   361 PWs)   bands (ev):

    -2.9755  -0.5927   2.0818   4.1339

          k = 1.6250-0.1250 0.1250 (   353 PWs)   bands (ev):

    -5.1037   2.7743   4.6946   4.7583

     highest occupied level (ev):     5.7016

     Writing output data file silicon.10.333.save

                                                                                

     bravais-lattice index     =            2
     lattice parameter (alat)  =      10.3330  a.u.
     unit-cell volume          =     275.8159 (a.u.)^3
     number of atoms/cell      =            2
     number of atomic types    =            1
     kinetic-energy cut-off    =      18.0000  Ry
     charge density cut-off    =      72.0000  Ry
     convergence threshold     =      1.0E-12
     beta                      =       0.7000
     number of iterations used =            4
     Exchange-correlation      = SLA  PW   PBE  PBE ( 1  4  3  4 0 0)


     celldm(1)=   10.33300  celldm(2)=    0.00000  celldm(3)=    0.00000
     celldm(4)=    0.00000  celldm(5)=    0.00000  celldm(6)=    0.00000

     crystal axes: (cart. coord. in units of alat)
               a(1) = ( -0.5000  0.0000  0.5000 )  
               a(2) = (  0.0000  0.5000  0.5000 )  
               a(3) = ( -0.5000  0.5000  0.0000 )  

     reciprocal axes: (cart. coord. in units 2 pi/alat)
               b(1) = ( -1.0000 -1.0000  1.0000 )  
               b(2) = (  1.0000  1.0000  1.0000 )  
               b(3) = ( -1.0000  1.0000 -1.0000 )  


     Atoms inside the unit cell: 

     Cartesian axes

     site n.  atom      mass           positions (alat units)
        1     Si  28.0860   tau(    1) = (    0.00000    0.00000    0.00000  )
        2     Si  28.0860   tau(    2) = (    0.25000    0.25000    0.25000  )

     Computing dynamical matrix for 
                    q = (   0.5000000  -0.5000000   0.5000000 )

     13 Sym.Ops. (with q -> -q+G )


     G cutoff =  194.7268  (    685 G-vectors)     FFT grid: ( 20, 20, 20)
     number of k points=    60

     PseudoPot. # 1 for Si read from file:
     /home/max/quantum_espresso/qe-6.1/pseudo/si_pbe_v1.uspp.F.UPF.txt
     MD5 check sum: a056efeee980c13900f22a371efd63c1
     Pseudo is Ultrasoft + core correction, Zval =  4.0
     Generated by new atomic code, or converted to UPF format
     Using radial grid of  899 points,  6 beta functions with: 
                l(1) =   0
                l(2) =   0
                l(3) =   1
                l(4) =   1
                l(5) =   2
                l(6) =   2
     Q(r) pseudized with  8 coefficients,  rinner =    0.900   0.900   0.900
                                                       0.900   0.900


     Atomic displacements:
     There are   4 irreducible representations

     Representation     1      1 modes -  To be done

     Representation     2      1 modes -  To be done

     Representation     3      2 modes -  To be done

     Representation     4      2 modes -  To be done



     Alpha used in Ewald sum =   0.7000
     PHONON       :    17.26s CPU        19.05s WALL



     Representation #  1 mode #   1

     Self-consistent Calculation

      iter #   1 total cpu time :    19.2 secs   av.it.:   4.8
      thresh= 1.000E-02 alpha_mix =  0.700 |ddv_scf|^2 =  2.482E-05

      iter #   2 total cpu time :    19.4 secs   av.it.:   8.3
      thresh= 4.982E-04 alpha_mix =  0.700 |ddv_scf|^2 =  2.211E-05

      iter #   3 total cpu time :    19.6 secs   av.it.:   7.5
      thresh= 4.702E-04 alpha_mix =  0.700 |ddv_scf|^2 =  4.208E-08

      iter #   4 total cpu time :    19.8 secs   av.it.:   7.5
      thresh= 2.051E-05 alpha_mix =  0.700 |ddv_scf|^2 =  1.418E-10

      iter #   5 total cpu time :    20.0 secs   av.it.:   7.9
      thresh= 1.191E-06 alpha_mix =  0.700 |ddv_scf|^2 =  3.592E-12

      iter #   6 total cpu time :    20.1 secs   av.it.:   7.9
      thresh= 1.895E-07 alpha_mix =  0.700 |ddv_scf|^2 =  5.540E-14

     End of self-consistent calculation

     Convergence has been achieved 


     Representation #  2 mode #   2

     Self-consistent Calculation

      iter #   1 total cpu time :    20.3 secs   av.it.:   5.6
      thresh= 1.000E-02 alpha_mix =  0.700 |ddv_scf|^2 =  3.448E-04

      iter #   2 total cpu time :    20.5 secs   av.it.:   8.3
      thresh= 1.857E-03 alpha_mix =  0.700 |ddv_scf|^2 =  1.063E-03

      iter #   3 total cpu time :    20.6 secs   av.it.:   7.1
      thresh= 3.260E-03 alpha_mix =  0.700 |ddv_scf|^2 =  1.141E-07

      iter #   4 total cpu time :    20.8 secs   av.it.:   8.1
      thresh= 3.378E-05 alpha_mix =  0.700 |ddv_scf|^2 =  7.341E-09

      iter #   5 total cpu time :    20.9 secs   av.it.:   8.5
      thresh= 8.568E-06 alpha_mix =  0.700 |ddv_scf|^2 =  1.303E-10

      iter #   6 total cpu time :    21.1 secs   av.it.:   8.3
      thresh= 1.142E-06 alpha_mix =  0.700 |ddv_scf|^2 =  2.077E-12

      iter #   7 total cpu time :    21.3 secs   av.it.:   7.8
      thresh= 1.441E-07 alpha_mix =  0.700 |ddv_scf|^2 =  3.167E-15

     End of self-consistent calculation

     Convergence has been achieved 


     Representation #  3 modes #   3  4

     Self-consistent Calculation

      iter #   1 total cpu time :    21.7 secs   av.it.:   4.7
      thresh= 1.000E-02 alpha_mix =  0.700 |ddv_scf|^2 =  3.039E-07

      iter #   2 total cpu time :    22.1 secs   av.it.:   9.0
      thresh= 5.513E-05 alpha_mix =  0.700 |ddv_scf|^2 =  2.508E-08

      iter #   3 total cpu time :    22.4 secs   av.it.:   8.4
      thresh= 1.584E-05 alpha_mix =  0.700 |ddv_scf|^2 =  4.936E-10

      iter #   4 total cpu time :    22.7 secs   av.it.:   8.9
      thresh= 2.222E-06 alpha_mix =  0.700 |ddv_scf|^2 =  6.202E-12

      iter #   5 total cpu time :    23.1 secs   av.it.:   8.7
      thresh= 2.490E-07 alpha_mix =  0.700 |ddv_scf|^2 =  3.227E-14

     End of self-consistent calculation

     Convergence has been achieved 


     Representation #  4 modes #   5  6

     Self-consistent Calculation

      iter #   1 total cpu time :    23.4 secs   av.it.:   4.9
      thresh= 1.000E-02 alpha_mix =  0.700 |ddv_scf|^2 =  9.798E-07

      iter #   2 total cpu time :    23.9 secs   av.it.:   9.4
      thresh= 9.899E-05 alpha_mix =  0.700 |ddv_scf|^2 =  7.667E-08

      iter #   3 total cpu time :    24.2 secs   av.it.:   9.3
      thresh= 2.769E-05 alpha_mix =  0.700 |ddv_scf|^2 =  4.922E-09

      iter #   4 total cpu time :    24.6 secs   av.it.:   8.5
      thresh= 7.016E-06 alpha_mix =  0.700 |ddv_scf|^2 =  6.616E-12

      iter #   5 total cpu time :    24.9 secs   av.it.:   8.8
      thresh= 2.572E-07 alpha_mix =  0.700 |ddv_scf|^2 =  2.294E-14

     End of self-consistent calculation

     Convergence has been achieved 

     Number of q in the star =    4
     List of q in the star:
          1   0.500000000  -0.500000000   0.500000000
          2   0.500000000   0.500000000   0.500000000
          3  -0.500000000   0.500000000   0.500000000
          4   0.500000000   0.500000000  -0.500000000

     Diagonalizing the dynamical matrix

     q = (    0.500000000  -0.500000000   0.500000000 ) 

 **************************************************************************
     freq (    1) =       4.557067 [THz] =     152.007391 [cm-1]
     freq (    2) =       4.557067 [THz] =     152.007391 [cm-1]
     freq (    3) =      11.550478 [THz] =     385.282465 [cm-1]
     freq (    4) =      12.135721 [THz] =     404.804064 [cm-1]
     freq (    5) =      14.414002 [THz] =     480.799339 [cm-1]
     freq (    6) =      14.414002 [THz] =     480.799339 [cm-1]
 **************************************************************************

     Calculation of q =    0.0000000   0.5000000   0.0000000

   Info: using nr1, nr2, nr3 values from input

   Info: using nr1, nr2, nr3 values from input

     Parallelization info
     --------------------
     sticks:   dense  smooth     PW     G-vecs:    dense   smooth      PW
     Min          63      63     27                  684      684     175
     Max          64      64     28                  688      688     176
     Sum         253     253    109                 2741     2741     701



     bravais-lattice index     =            2
     lattice parameter (alat)  =      10.3330  a.u.
     unit-cell volume          =     275.8159 (a.u.)^3
     number of atoms/cell      =            2
     number of atomic types    =            1
     number of electrons       =         8.00
     number of Kohn-Sham states=            4
     kinetic-energy cutoff     =      18.0000  Ry
     charge density cutoff     =      72.0000  Ry
     Exchange-correlation      = SLA  PW   PBE  PBE ( 1  4  3  4 0 0)

     celldm(1)=  10.333000  celldm(2)=   0.000000  celldm(3)=   0.000000
     celldm(4)=   0.000000  celldm(5)=   0.000000  celldm(6)=   0.000000

     crystal axes: (cart. coord. in units of alat)
               a(1) = (  -0.500000   0.000000   0.500000 )  
               a(2) = (   0.000000   0.500000   0.500000 )  
               a(3) = (  -0.500000   0.500000   0.000000 )  

     reciprocal axes: (cart. coord. in units 2 pi/alat)
               b(1) = ( -1.000000 -1.000000  1.000000 )  
               b(2) = (  1.000000  1.000000  1.000000 )  
               b(3) = ( -1.000000  1.000000 -1.000000 )  


     PseudoPot. # 1 for Si read from file:
     /home/max/quantum_espresso/qe-6.1/pseudo/si_pbe_v1.uspp.F.UPF.txt
     MD5 check sum: a056efeee980c13900f22a371efd63c1
     Pseudo is Ultrasoft + core correction, Zval =  4.0
     Generated by new atomic code, or converted to UPF format
     Using radial grid of  899 points,  6 beta functions with: 
                l(1) =   0
                l(2) =   0
                l(3) =   1
                l(4) =   1
                l(5) =   2
                l(6) =   2
     Q(r) pseudized with  8 coefficients,  rinner =    0.900   0.900   0.900
                                                       0.900   0.900

     atomic species   valence    mass     pseudopotential
        Si             4.00    28.08600     Si( 1.00)

     48 Sym. Ops., with inversion, found



   Cartesian axes

     site n.     atom                  positions (alat units)
         1           Si  tau(   1) = (   0.0000000   0.0000000   0.0000000  )
         2           Si  tau(   2) = (   0.2500000   0.2500000   0.2500000  )

     number of k points=    80
                       cart. coord. in units 2pi/alat
        k(    1) = (  -0.1250000   0.1250000   0.1250000), wk =   0.0312500
        k(    2) = (  -0.1250000   0.6250000   0.1250000), wk =   0.0000000
        k(    3) = (  -0.3750000   0.3750000  -0.1250000), wk =   0.0625000
        k(    4) = (  -0.3750000   0.8750000  -0.1250000), wk =   0.0000000
        k(    5) = (   0.3750000  -0.3750000   0.6250000), wk =   0.0625000
        k(    6) = (   0.3750000   0.1250000   0.6250000), wk =   0.0000000
        k(    7) = (   0.1250000  -0.1250000   0.3750000), wk =   0.0625000
        k(    8) = (   0.1250000   0.3750000   0.3750000), wk =   0.0000000
        k(    9) = (  -0.1250000   0.6250000   0.1250000), wk =   0.0312500
        k(   10) = (  -0.1250000   1.1250000   0.1250000), wk =   0.0000000
        k(   11) = (   0.6250000  -0.1250000   0.8750000), wk =   0.0625000
        k(   12) = (   0.6250000   0.3750000   0.8750000), wk =   0.0000000
        k(   13) = (   0.3750000   0.1250000   0.6250000), wk =   0.0625000
        k(   14) = (   0.3750000   0.6250000   0.6250000), wk =   0.0000000
        k(   15) = (  -0.1250000  -0.8750000   0.1250000), wk =   0.0312500
        k(   16) = (  -0.1250000  -0.3750000   0.1250000), wk =   0.0000000
        k(   17) = (  -0.3750000   0.3750000   0.3750000), wk =   0.0312500
        k(   18) = (  -0.3750000   0.8750000   0.3750000), wk =   0.0000000
        k(   19) = (   0.3750000  -0.3750000   1.1250000), wk =   0.0625000
        k(   20) = (   0.3750000   0.1250000   1.1250000), wk =   0.0000000
        k(   21) = (  -0.1250000  -0.1250000   0.1250000), wk =   0.0312500
        k(   22) = (  -0.1250000   0.3750000   0.1250000), wk =   0.0000000
        k(   23) = (   0.1250000  -0.3750000   0.3750000), wk =   0.0625000
        k(   24) = (   0.1250000   0.1250000   0.3750000), wk =   0.0000000
        k(   25) = (   0.3750000  -0.1250000   0.3750000), wk =   0.0312500
        k(   26) = (   0.3750000   0.3750000   0.3750000), wk =   0.0000000
        k(   27) = (   0.3750000   0.1250000   0.3750000), wk =   0.0312500
        k(   28) = (   0.3750000   0.6250000   0.3750000), wk =   0.0000000
        k(   29) = (  -0.6250000   0.3750000  -0.3750000), wk =   0.0625000
        k(   30) = (  -0.6250000   0.8750000  -0.3750000), wk =   0.0000000
        k(   31) = (  -0.3750000   0.6250000  -0.3750000), wk =   0.0312500
        k(   32) = (  -0.3750000   1.1250000  -0.3750000), wk =   0.0000000
        k(   33) = (  -0.3750000  -0.6250000  -0.3750000), wk =   0.0312500
        k(   34) = (  -0.3750000  -0.1250000  -0.3750000), wk =   0.0000000
        k(   35) = (  -0.3750000   0.1250000  -0.1250000), wk =   0.0625000
        k(   36) = (  -0.3750000   0.6250000  -0.1250000), wk =   0.0000000
        k(   37) = (  -0.1250000   0.3750000  -0.1250000), wk =   0.0312500
        k(   38) = (  -0.1250000   0.8750000  -0.1250000), wk =   0.0000000
        k(   39) = (  -0.1250000  -0.3750000  -0.1250000), wk =   0.0312500
        k(   40) = (  -0.1250000   0.1250000  -0.1250000), wk =   0.0000000
        k(   41) = (  -0.1250000  -0.6250000   0.1250000), wk =   0.0312500
        k(   42) = (  -0.1250000  -0.1250000   0.1250000), wk =   0.0000000
        k(   43) = (   0.6250000  -0.1250000  -0.1250000), wk =   0.0625000
        k(   44) = (   0.6250000   0.3750000  -0.1250000), wk =   0.0000000
        k(   45) = (   0.6250000   0.1250000   0.1250000), wk =   0.0625000
        k(   46) = (   0.6250000   0.6250000   0.1250000), wk =   0.0000000
        k(   47) = (  -0.8750000   0.1250000  -0.6250000), wk =   0.0625000
        k(   48) = (  -0.8750000   0.6250000  -0.6250000), wk =   0.0000000
        k(   49) = (  -0.1250000   0.6250000  -0.8750000), wk =   0.0625000
        k(   50) = (  -0.1250000   1.1250000  -0.8750000), wk =   0.0000000
        k(   51) = (  -0.1250000   0.8750000  -0.6250000), wk =   0.0625000
        k(   52) = (  -0.1250000   1.3750000  -0.6250000), wk =   0.0000000
        k(   53) = (  -0.1250000  -0.8750000  -0.6250000), wk =   0.0625000
        k(   54) = (  -0.1250000  -0.3750000  -0.6250000), wk =   0.0000000
        k(   55) = (   0.8750000  -0.6250000   0.1250000), wk =   0.0625000
        k(   56) = (   0.8750000  -0.1250000   0.1250000), wk =   0.0000000
        k(   57) = (  -0.6250000  -0.1250000  -0.3750000), wk =   0.0625000
        k(   58) = (  -0.6250000   0.3750000  -0.3750000), wk =   0.0000000
        k(   59) = (   0.1250000   0.3750000  -0.6250000), wk =   0.0625000
        k(   60) = (   0.1250000   0.8750000  -0.6250000), wk =   0.0000000
        k(   61) = (   0.1250000   0.6250000  -0.3750000), wk =   0.0625000
        k(   62) = (   0.1250000   1.1250000  -0.3750000), wk =   0.0000000
        k(   63) = (   0.1250000  -0.6250000  -0.3750000), wk =   0.0625000
        k(   64) = (   0.1250000  -0.1250000  -0.3750000), wk =   0.0000000
        k(   65) = (   0.6250000  -0.3750000  -0.1250000), wk =   0.0625000
        k(   66) = (   0.6250000   0.1250000  -0.1250000), wk =   0.0000000
        k(   67) = (  -0.1250000   0.8750000   0.1250000), wk =   0.0312500
        k(   68) = (  -0.1250000   1.3750000   0.1250000), wk =   0.0000000
        k(   69) = (  -0.8750000  -0.1250000  -0.1250000), wk =   0.0625000
        k(   70) = (  -0.8750000   0.3750000  -0.1250000), wk =   0.0000000
        k(   71) = (  -0.8750000   0.1250000   0.1250000), wk =   0.0625000
        k(   72) = (  -0.8750000   0.6250000   0.1250000), wk =   0.0000000
        k(   73) = (  -0.3750000  -0.3750000   0.3750000), wk =   0.0312500
        k(   74) = (  -0.3750000   0.1250000   0.3750000), wk =   0.0000000
        k(   75) = (  -1.1250000   0.3750000  -0.3750000), wk =   0.0625000
        k(   76) = (  -1.1250000   0.8750000  -0.3750000), wk =   0.0000000
        k(   77) = (  -0.3750000   1.1250000  -0.3750000), wk =   0.0312500
        k(   78) = (  -0.3750000   1.6250000  -0.3750000), wk =   0.0000000
        k(   79) = (  -0.3750000  -1.1250000  -0.3750000), wk =   0.0312500
        k(   80) = (  -0.3750000  -0.6250000  -0.3750000), wk =   0.0000000

     Dense  grid:     2741 G-vectors     FFT dimensions: (  20,  20,  20)

     Estimated max dynamical RAM per process >       0.33MB

     Estimated total allocated dynamical RAM >       1.31MB

     Check: negative/imaginary core charge=   -0.000005    0.000000

     The potential is recalculated from file :
     ./_ph0/silicon.10.333.save/charge-density.dat

     Starting wfc are    8 atomic wfcs

     Band Structure Calculation
     Davidson diagonalization with overlap

     ethr =  1.25E-10,  avg # of iterations = 11.7

     total cpu time spent up to now is        2.5 secs

     End of band structure calculation

          k =-0.1250 0.1250 0.1250 (   338 PWs)   bands (ev):

    -5.6300   4.3929   5.7016   5.7016

          k =-0.1250 0.6250 0.1250 (   351 PWs)   bands (ev):

    -4.0743   1.0620   3.3731   3.8214

          k =-0.3750 0.3750-0.1250 (   352 PWs)   bands (ev):

    -4.6061   1.4003   3.7206   5.2197

          k =-0.3750 0.8750-0.1250 (   361 PWs)   bands (ev):

    -2.4388  -0.8990   2.0249   3.0962

          k = 0.3750-0.3750 0.6250 (   361 PWs)   bands (ev):

    -3.4707  -0.6724   3.7390   4.4497

          k = 0.3750 0.1250 0.6250 (   357 PWs)   bands (ev):

    -3.6604   0.1926   2.7333   4.0970

          k = 0.1250-0.1250 0.3750 (   353 PWs)   bands (ev):

    -5.1037   2.7743   4.6946   4.7583

          k = 0.1250 0.3750 0.3750 (   352 PWs)   bands (ev):

    -4.6061   1.4003   3.7206   5.2197

          k =-0.1250 0.6250 0.1250 (   351 PWs)   bands (ev):

    -4.0743   1.0620   3.3731   3.8214

          k =-0.1250 1.1250 0.1250 (   358 PWs)   bands (ev):

    -2.6052  -0.8019   2.6310   3.3549

          k = 0.6250-0.1250 0.8750 (   361 PWs)   bands (ev):

    -2.4388  -0.8990   2.0249   3.0962

          k = 0.6250 0.3750 0.8750 (   357 PWs)   bands (ev):

    -3.6604   0.1926   2.7333   4.0970

          k = 0.3750 0.1250 0.6250 (   357 PWs)   bands (ev):

    -3.6604   0.1926   2.7333   4.0970

          k = 0.3750 0.6250 0.6250 (   361 PWs)   bands (ev):

    -3.4707  -0.6724   3.7390   4.4497

          k =-0.1250-0.8750 0.1250 (   358 PWs)   bands (ev):

    -2.6052  -0.8019   2.6310   3.3549

          k =-0.1250-0.3750 0.1250 (   353 PWs)   bands (ev):

    -5.1037   2.7743   4.6946   4.7583

          k =-0.3750 0.3750 0.3750 (   353 PWs)   bands (ev):

    -4.1750   0.1147   4.9135   4.9135

          k =-0.3750 0.8750 0.3750 (   361 PWs)   bands (ev):

    -2.9755  -0.5927   2.0818   4.1339

          k = 0.3750-0.3750 1.1250 (   361 PWs)   bands (ev):

    -2.9755  -0.5927   2.0818   4.1339

          k = 0.3750 0.1250 1.1250 (   361 PWs)   bands (ev):

    -2.4388  -0.8990   2.0249   3.0962

          k =-0.1250-0.1250 0.1250 (   338 PWs)   bands (ev):

    -5.6300   4.3929   5.7016   5.7016

          k =-0.1250 0.3750 0.1250 (   353 PWs)   bands (ev):

    -5.1037   2.7743   4.6946   4.7583

          k = 0.1250-0.3750 0.3750 (   352 PWs)   bands (ev):

    -4.6061   1.4003   3.7206   5.2197

          k = 0.1250 0.1250 0.3750 (   353 PWs)   bands (ev):

    -5.1037   2.7743   4.6946   4.7583

          k = 0.3750-0.1250 0.3750 (   352 PWs)   bands (ev):

    -4.6061   1.4003   3.7206   5.2197

          k = 0.3750 0.3750 0.3750 (   353 PWs)   bands (ev):

    -4.1750   0.1147   4.9135   4.9135

          k = 0.3750 0.1250 0.3750 (   352 PWs)   bands (ev):

    -4.6061   1.4003   3.7206   5.2197

          k = 0.3750 0.6250 0.3750 (   361 PWs)   bands (ev):

    -3.4707  -0.6724   3.7390   4.4497

          k =-0.6250 0.3750-0.3750 (   361 PWs)   bands (ev):

    -3.4707  -0.6724   3.7390   4.4497

          k =-0.6250 0.8750-0.3750 (   357 PWs)   bands (ev):

    -3.6604   0.1926   2.7333   4.0970

          k =-0.3750 0.6250-0.3750 (   361 PWs)   bands (ev):

    -3.4707  -0.6724   3.7390   4.4497

          k =-0.3750 1.1250-0.3750 (   361 PWs)   bands (ev):

    -2.9755  -0.5927   2.0818   4.1339

          k =-0.3750-0.6250-0.3750 (   361 PWs)   bands (ev):

    -3.4707  -0.6724   3.7390   4.4497

          k =-0.3750-0.1250-0.3750 (   352 PWs)   bands (ev):

    -4.6061   1.4003   3.7206   5.2197

          k =-0.3750 0.1250-0.1250 (   353 PWs)   bands (ev):

    -5.1037   2.7743   4.6946   4.7583

          k =-0.3750 0.6250-0.1250 (   357 PWs)   bands (ev):

    -3.6604   0.1926   2.7333   4.0970

          k =-0.1250 0.3750-0.1250 (   353 PWs)   bands (ev):

    -5.1037   2.7743   4.6946   4.7583

          k =-0.1250 0.8750-0.1250 (   358 PWs)   bands (ev):

    -2.6052  -0.8019   2.6310   3.3549

          k =-0.1250-0.3750-0.1250 (   353 PWs)   bands (ev):

    -5.1037   2.7743   4.6946   4.7583

          k =-0.1250 0.1250-0.1250 (   338 PWs)   bands (ev):

    -5.6300   4.3929   5.7016   5.7016

          k =-0.1250-0.6250 0.1250 (   351 PWs)   bands (ev):

    -4.0743   1.0620   3.3731   3.8214

          k =-0.1250-0.1250 0.1250 (   338 PWs)   bands (ev):

    -5.6300   4.3929   5.7016   5.7016

          k = 0.6250-0.1250-0.1250 (   351 PWs)   bands (ev):

    -4.0743   1.0620   3.3731   3.8214

          k = 0.6250 0.3750-0.1250 (   357 PWs)   bands (ev):

    -3.6604   0.1926   2.7333   4.0970

          k = 0.6250 0.1250 0.1250 (   351 PWs)   bands (ev):

    -4.0743   1.0620   3.3731   3.8214

          k = 0.6250 0.6250 0.1250 (   361 PWs)   bands (ev):

    -2.9755  -0.5927   2.0818   4.1339

          k =-0.8750 0.1250-0.6250 (   361 PWs)   bands (ev):

    -2.4388  -0.8990   2.0249   3.0962

          k =-0.8750 0.6250-0.6250 (   352 PWs)   bands (ev):

    -4.6061   1.4003   3.7206   5.2197

          k =-0.1250 0.6250-0.8750 (   361 PWs)   bands (ev):

    -2.4388  -0.8990   2.0249   3.0962

          k =-0.1250 1.1250-0.8750 (   358 PWs)   bands (ev):

    -2.6052  -0.8019   2.6310   3.3549

          k =-0.1250 0.8750-0.6250 (   361 PWs)   bands (ev):

    -2.4388  -0.8990   2.0249   3.0962

          k =-0.1250 1.3750-0.6250 (   361 PWs)   bands (ev):

    -2.9755  -0.5927   2.0818   4.1339

          k =-0.1250-0.8750-0.6250 (   361 PWs)   bands (ev):

    -2.4388  -0.8990   2.0249   3.0962

          k =-0.1250-0.3750-0.6250 (   357 PWs)   bands (ev):

    -3.6604   0.1926   2.7333   4.0970

          k = 0.8750-0.6250 0.1250 (   361 PWs)   bands (ev):

    -2.4388  -0.8990   2.0249   3.0962

          k = 0.8750-0.1250 0.1250 (   358 PWs)   bands (ev):

    -2.6052  -0.8019   2.6310   3.3549

          k =-0.6250-0.1250-0.3750 (   357 PWs)   bands (ev):

    -3.6604   0.1926   2.7333   4.0970

          k =-0.6250 0.3750-0.3750 (   361 PWs)   bands (ev):

    -3.4707  -0.6724   3.7390   4.4497

          k = 0.1250 0.3750-0.6250 (   357 PWs)   bands (ev):

    -3.6604   0.1926   2.7333   4.0970

          k = 0.1250 0.8750-0.6250 (   361 PWs)   bands (ev):

    -2.4388  -0.8990   2.0249   3.0962

          k = 0.1250 0.6250-0.3750 (   357 PWs)   bands (ev):

    -3.6604   0.1926   2.7333   4.0970

          k = 0.1250 1.1250-0.3750 (   361 PWs)   bands (ev):

    -2.4388  -0.8990   2.0249   3.0962

          k = 0.1250-0.6250-0.3750 (   357 PWs)   bands (ev):

    -3.6604   0.1926   2.7333   4.0970

          k = 0.1250-0.1250-0.3750 (   353 PWs)   bands (ev):

    -5.1037   2.7743   4.6946   4.7583

          k = 0.6250-0.3750-0.1250 (   357 PWs)   bands (ev):

    -3.6604   0.1926   2.7333   4.0970

          k = 0.6250 0.1250-0.1250 (   351 PWs)   bands (ev):

    -4.0743   1.0620   3.3731   3.8214

          k =-0.1250 0.8750 0.1250 (   358 PWs)   bands (ev):

    -2.6052  -0.8019   2.6310   3.3549

          k =-0.1250 1.3750 0.1250 (   351 PWs)   bands (ev):

    -4.0743   1.0620   3.3731   3.8214

          k =-0.8750-0.1250-0.1250 (   358 PWs)   bands (ev):

    -2.6052  -0.8019   2.6310   3.3549

          k =-0.8750 0.3750-0.1250 (   361 PWs)   bands (ev):

    -2.4388  -0.8990   2.0249   3.0962

          k =-0.8750 0.1250 0.1250 (   358 PWs)   bands (ev):

    -2.6052  -0.8019   2.6310   3.3549

          k =-0.8750 0.6250 0.1250 (   361 PWs)   bands (ev):

    -2.4388  -0.8990   2.0249   3.0962

          k =-0.3750-0.3750 0.3750 (   353 PWs)   bands (ev):

    -4.1750   0.1147   4.9135   4.9135

          k =-0.3750 0.1250 0.3750 (   352 PWs)   bands (ev):

    -4.6061   1.4003   3.7206   5.2197

          k =-1.1250 0.3750-0.3750 (   361 PWs)   bands (ev):

    -2.9755  -0.5927   2.0818   4.1339

          k =-1.1250 0.8750-0.3750 (   351 PWs)   bands (ev):

    -4.0743   1.0620   3.3731   3.8214

          k =-0.3750 1.1250-0.3750 (   361 PWs)   bands (ev):

    -2.9755  -0.5927   2.0818   4.1339

          k =-0.3750 1.6250-0.3750 (   353 PWs)   bands (ev):

    -4.1750   0.1147   4.9135   4.9135

          k =-0.3750-1.1250-0.3750 (   361 PWs)   bands (ev):

    -2.9755  -0.5927   2.0818   4.1339

          k =-0.3750-0.6250-0.3750 (   361 PWs)   bands (ev):

    -3.4707  -0.6724   3.7390   4.4497

     highest occupied level (ev):     5.7016

     Writing output data file silicon.10.333.save

                                                                                

     bravais-lattice index     =            2
     lattice parameter (alat)  =      10.3330  a.u.
     unit-cell volume          =     275.8159 (a.u.)^3
     number of atoms/cell      =            2
     number of atomic types    =            1
     kinetic-energy cut-off    =      18.0000  Ry
     charge density cut-off    =      72.0000  Ry
     convergence threshold     =      1.0E-12
     beta                      =       0.7000
     number of iterations used =            4
     Exchange-correlation      = SLA  PW   PBE  PBE ( 1  4  3  4 0 0)


     celldm(1)=   10.33300  celldm(2)=    0.00000  celldm(3)=    0.00000
     celldm(4)=    0.00000  celldm(5)=    0.00000  celldm(6)=    0.00000

     crystal axes: (cart. coord. in units of alat)
               a(1) = ( -0.5000  0.0000  0.5000 )  
               a(2) = (  0.0000  0.5000  0.5000 )  
               a(3) = ( -0.5000  0.5000  0.0000 )  

     reciprocal axes: (cart. coord. in units 2 pi/alat)
               b(1) = ( -1.0000 -1.0000  1.0000 )  
               b(2) = (  1.0000  1.0000  1.0000 )  
               b(3) = ( -1.0000  1.0000 -1.0000 )  


     Atoms inside the unit cell: 

     Cartesian axes

     site n.  atom      mass           positions (alat units)
        1     Si  28.0860   tau(    1) = (    0.00000    0.00000    0.00000  )
        2     Si  28.0860   tau(    2) = (    0.25000    0.25000    0.25000  )

     Computing dynamical matrix for 
                    q = (   0.0000000   0.5000000   0.0000000 )

      8 Sym.Ops. (no q -> -q+G )


     G cutoff =  194.7268  (    685 G-vectors)     FFT grid: ( 20, 20, 20)
     number of k points=    80

     PseudoPot. # 1 for Si read from file:
     /home/max/quantum_espresso/qe-6.1/pseudo/si_pbe_v1.uspp.F.UPF.txt
     MD5 check sum: a056efeee980c13900f22a371efd63c1
     Pseudo is Ultrasoft + core correction, Zval =  4.0
     Generated by new atomic code, or converted to UPF format
     Using radial grid of  899 points,  6 beta functions with: 
                l(1) =   0
                l(2) =   0
                l(3) =   1
                l(4) =   1
                l(5) =   2
                l(6) =   2
     Q(r) pseudized with  8 coefficients,  rinner =    0.900   0.900   0.900
                                                       0.900   0.900

     Mode symmetry, C_4v (4mm)  point group:


     Atomic displacements:
     There are   4 irreducible representations

     Representation     1      1 modes -A_1  G_1 D_1  To be done

     Representation     2      1 modes -B_2  G_4 D_2'  To be done

     Representation     3      2 modes -E    G_5 D_5  To be done

     Representation     4      2 modes -E    G_5 D_5  To be done



     Alpha used in Ewald sum =   0.7000
     PHONON       :    23.69s CPU        26.11s WALL



     Representation #  1 mode #   1

     Self-consistent Calculation

      iter #   1 total cpu time :    26.3 secs   av.it.:   5.8
      thresh= 1.000E-02 alpha_mix =  0.700 |ddv_scf|^2 =  2.971E-03

      iter #   2 total cpu time :    26.5 secs   av.it.:   7.7
      thresh= 5.451E-03 alpha_mix =  0.700 |ddv_scf|^2 =  3.909E-02

      iter #   3 total cpu time :    26.7 secs   av.it.:   6.7
      thresh= 1.000E-02 alpha_mix =  0.700 |ddv_scf|^2 =  1.377E-07

      iter #   4 total cpu time :    26.9 secs   av.it.:   8.2
      thresh= 3.711E-05 alpha_mix =  0.700 |ddv_scf|^2 =  1.254E-08

      iter #   5 total cpu time :    27.1 secs   av.it.:   7.8
      thresh= 1.120E-05 alpha_mix =  0.700 |ddv_scf|^2 =  7.389E-10

      iter #   6 total cpu time :    27.3 secs   av.it.:   7.8
      thresh= 2.718E-06 alpha_mix =  0.700 |ddv_scf|^2 =  2.671E-12

      iter #   7 total cpu time :    27.7 secs   av.it.:   8.0
      thresh= 1.634E-07 alpha_mix =  0.700 |ddv_scf|^2 =  5.311E-13

     End of self-consistent calculation

     Convergence has been achieved 


     Representation #  2 mode #   2

     Self-consistent Calculation

      iter #   1 total cpu time :    27.9 secs   av.it.:   4.9
      thresh= 1.000E-02 alpha_mix =  0.700 |ddv_scf|^2 =  5.515E-06

      iter #   2 total cpu time :    28.1 secs   av.it.:   8.7
      thresh= 2.348E-04 alpha_mix =  0.700 |ddv_scf|^2 =  1.335E-06

      iter #   3 total cpu time :    28.3 secs   av.it.:   8.5
      thresh= 1.155E-04 alpha_mix =  0.700 |ddv_scf|^2 =  4.283E-08

      iter #   4 total cpu time :    28.5 secs   av.it.:   8.2
      thresh= 2.070E-05 alpha_mix =  0.700 |ddv_scf|^2 =  6.974E-10

      iter #   5 total cpu time :    28.7 secs   av.it.:   8.5
      thresh= 2.641E-06 alpha_mix =  0.700 |ddv_scf|^2 =  6.901E-12

      iter #   6 total cpu time :    29.0 secs   av.it.:   7.9
      thresh= 2.627E-07 alpha_mix =  0.700 |ddv_scf|^2 =  6.992E-14

     End of self-consistent calculation

     Convergence has been achieved 


     Representation #  3 modes #   3  4

     Self-consistent Calculation

      iter #   1 total cpu time :    29.3 secs   av.it.:   5.0
      thresh= 1.000E-02 alpha_mix =  0.700 |ddv_scf|^2 =  1.025E-06

      iter #   2 total cpu time :    30.0 secs   av.it.:   9.7
      thresh= 1.013E-04 alpha_mix =  0.700 |ddv_scf|^2 =  1.269E-07

      iter #   3 total cpu time :    30.4 secs   av.it.:   9.5
      thresh= 3.562E-05 alpha_mix =  0.700 |ddv_scf|^2 =  6.711E-09

      iter #   4 total cpu time :    30.8 secs   av.it.:   8.8
      thresh= 8.192E-06 alpha_mix =  0.700 |ddv_scf|^2 =  9.387E-12

      iter #   5 total cpu time :    31.3 secs   av.it.:   9.1
      thresh= 3.064E-07 alpha_mix =  0.700 |ddv_scf|^2 =  2.857E-13

     End of self-consistent calculation

     Convergence has been achieved 


     Representation #  4 modes #   5  6

     Self-consistent Calculation

      iter #   1 total cpu time :    31.9 secs   av.it.:   5.0
      thresh= 1.000E-02 alpha_mix =  0.700 |ddv_scf|^2 =  9.084E-07

      iter #   2 total cpu time :    32.3 secs   av.it.:   9.8
      thresh= 9.531E-05 alpha_mix =  0.700 |ddv_scf|^2 =  1.150E-07

      iter #   3 total cpu time :    32.8 secs   av.it.:   9.4
      thresh= 3.391E-05 alpha_mix =  0.700 |ddv_scf|^2 =  6.161E-09

      iter #   4 total cpu time :    33.2 secs   av.it.:   8.9
      thresh= 7.849E-06 alpha_mix =  0.700 |ddv_scf|^2 =  1.405E-11

      iter #   5 total cpu time :    33.9 secs   av.it.:   9.2
      thresh= 3.748E-07 alpha_mix =  0.700 |ddv_scf|^2 =  4.330E-14

     End of self-consistent calculation

     Convergence has been achieved 

     Number of q in the star =    6
     List of q in the star:
          1   0.000000000   0.500000000   0.000000000
          2   0.000000000  -0.500000000   0.000000000
          3   0.500000000   0.000000000   0.000000000
          4   0.000000000   0.000000000   0.500000000
          5   0.000000000   0.000000000  -0.500000000
          6  -0.500000000   0.000000000   0.000000000

     Diagonalizing the dynamical matrix

     q = (    0.000000000   0.500000000   0.000000000 ) 

 **************************************************************************
     freq (    1) =       4.218486 [THz] =     140.713551 [cm-1]
     freq (    2) =       4.218486 [THz] =     140.713551 [cm-1]
     freq (    3) =       7.185879 [THz] =     239.695123 [cm-1]
     freq (    4) =      13.708397 [THz] =     457.262888 [cm-1]
     freq (    5) =      13.708397 [THz] =     457.262888 [cm-1]
     freq (    6) =      14.320807 [THz] =     477.690705 [cm-1]
 **************************************************************************

     Mode symmetry, C_4v (4mm)  point group:

     freq (  1 -  2) =        140.7  [cm-1]   --> E    G_5 D_5       
     freq (  3 -  3) =        239.7  [cm-1]   --> A_1  G_1 D_1       
     freq (  4 -  5) =        457.3  [cm-1]   --> E    G_5 D_5       
     freq (  6 -  6) =        477.7  [cm-1]   --> B_2  G_4 D_2'      

     Calculation of q =    0.7500000  -0.2500000   0.7500000

   Info: using nr1, nr2, nr3 values from input

   Info: using nr1, nr2, nr3 values from input

     Parallelization info
     --------------------
     sticks:   dense  smooth     PW     G-vecs:    dense   smooth      PW
     Min          63      63     30                  684      684     216
     Max          64      64     31                  688      688     218
     Sum         253     253    121                 2741     2741     869



     bravais-lattice index     =            2
     lattice parameter (alat)  =      10.3330  a.u.
     unit-cell volume          =     275.8159 (a.u.)^3
     number of atoms/cell      =            2
     number of atomic types    =            1
     number of electrons       =         8.00
     number of Kohn-Sham states=            4
     kinetic-energy cutoff     =      18.0000  Ry
     charge density cutoff     =      72.0000  Ry
     Exchange-correlation      = SLA  PW   PBE  PBE ( 1  4  3  4 0 0)

     celldm(1)=  10.333000  celldm(2)=   0.000000  celldm(3)=   0.000000
     celldm(4)=   0.000000  celldm(5)=   0.000000  celldm(6)=   0.000000

     crystal axes: (cart. coord. in units of alat)
               a(1) = (  -0.500000   0.000000   0.500000 )  
               a(2) = (   0.000000   0.500000   0.500000 )  
               a(3) = (  -0.500000   0.500000   0.000000 )  

     reciprocal axes: (cart. coord. in units 2 pi/alat)
               b(1) = ( -1.000000 -1.000000  1.000000 )  
               b(2) = (  1.000000  1.000000  1.000000 )  
               b(3) = ( -1.000000  1.000000 -1.000000 )  


     PseudoPot. # 1 for Si read from file:
     /home/max/quantum_espresso/qe-6.1/pseudo/si_pbe_v1.uspp.F.UPF.txt
     MD5 check sum: a056efeee980c13900f22a371efd63c1
     Pseudo is Ultrasoft + core correction, Zval =  4.0
     Generated by new atomic code, or converted to UPF format
     Using radial grid of  899 points,  6 beta functions with: 
                l(1) =   0
                l(2) =   0
                l(3) =   1
                l(4) =   1
                l(5) =   2
                l(6) =   2
     Q(r) pseudized with  8 coefficients,  rinner =    0.900   0.900   0.900
                                                       0.900   0.900

     atomic species   valence    mass     pseudopotential
        Si             4.00    28.08600     Si( 1.00)

     48 Sym. Ops., with inversion, found



   Cartesian axes

     site n.     atom                  positions (alat units)
         1           Si  tau(   1) = (   0.0000000   0.0000000   0.0000000  )
         2           Si  tau(   2) = (   0.2500000   0.2500000   0.2500000  )

     number of k points=   288

     Number of k-points >= 100: set verbosity='high' to print them.

     Dense  grid:     2741 G-vectors     FFT dimensions: (  20,  20,  20)

     Estimated max dynamical RAM per process >       0.33MB

     Estimated total allocated dynamical RAM >       1.31MB

     Check: negative/imaginary core charge=   -0.000005    0.000000

     The potential is recalculated from file :
     ./_ph0/silicon.10.333.save/charge-density.dat

     Starting wfc are    8 atomic wfcs

     Band Structure Calculation
     Davidson diagonalization with overlap

     ethr =  1.25E-10,  avg # of iterations = 11.6

     total cpu time spent up to now is        4.8 secs

     End of band structure calculation

     Number of k-points >= 100: set verbosity='high' to print the bands.

     highest occupied level (ev):     5.7016

     Writing output data file silicon.10.333.save

                                                                                

     bravais-lattice index     =            2
     lattice parameter (alat)  =      10.3330  a.u.
     unit-cell volume          =     275.8159 (a.u.)^3
     number of atoms/cell      =            2
     number of atomic types    =            1
     kinetic-energy cut-off    =      18.0000  Ry
     charge density cut-off    =      72.0000  Ry
     convergence threshold     =      1.0E-12
     beta                      =       0.7000
     number of iterations used =            4
     Exchange-correlation      = SLA  PW   PBE  PBE ( 1  4  3  4 0 0)


     celldm(1)=   10.33300  celldm(2)=    0.00000  celldm(3)=    0.00000
     celldm(4)=    0.00000  celldm(5)=    0.00000  celldm(6)=    0.00000

     crystal axes: (cart. coord. in units of alat)
               a(1) = ( -0.5000  0.0000  0.5000 )  
               a(2) = (  0.0000  0.5000  0.5000 )  
               a(3) = ( -0.5000  0.5000  0.0000 )  

     reciprocal axes: (cart. coord. in units 2 pi/alat)
               b(1) = ( -1.0000 -1.0000  1.0000 )  
               b(2) = (  1.0000  1.0000  1.0000 )  
               b(3) = ( -1.0000  1.0000 -1.0000 )  


     Atoms inside the unit cell: 

     Cartesian axes

     site n.  atom      mass           positions (alat units)
        1     Si  28.0860   tau(    1) = (    0.00000    0.00000    0.00000  )
        2     Si  28.0860   tau(    2) = (    0.25000    0.25000    0.25000  )

     Computing dynamical matrix for 
                    q = (   0.7500000  -0.2500000   0.7500000 )

      2 Sym.Ops. (no q -> -q+G )


     G cutoff =  194.7268  (    685 G-vectors)     FFT grid: ( 20, 20, 20)
     number of k points=   288

     PseudoPot. # 1 for Si read from file:
     /home/max/quantum_espresso/qe-6.1/pseudo/si_pbe_v1.uspp.F.UPF.txt
     MD5 check sum: a056efeee980c13900f22a371efd63c1
     Pseudo is Ultrasoft + core correction, Zval =  4.0
     Generated by new atomic code, or converted to UPF format
     Using radial grid of  899 points,  6 beta functions with: 
                l(1) =   0
                l(2) =   0
                l(3) =   1
                l(4) =   1
                l(5) =   2
                l(6) =   2
     Q(r) pseudized with  8 coefficients,  rinner =    0.900   0.900   0.900
                                                       0.900   0.900

     Mode symmetry, C_s (m)     point group:


     Atomic displacements:
     There are   6 irreducible representations

     Representation     1      1 modes -A'  To be done

     Representation     2      1 modes -A'  To be done

     Representation     3      1 modes -A'  To be done

     Representation     4      1 modes -A'  To be done

     Representation     5      1 modes -A''  To be done

     Representation     6      1 modes -A''  To be done



     Alpha used in Ewald sum =   0.7000
     PHONON       :    33.56s CPU        36.96s WALL



     Representation #  1 mode #   1

     Self-consistent Calculation

      iter #   1 total cpu time :    37.7 secs   av.it.:   5.3
      thresh= 1.000E-02 alpha_mix =  0.700 |ddv_scf|^2 =  6.120E-05

      iter #   2 total cpu time :    38.5 secs   av.it.:   8.9
      thresh= 7.823E-04 alpha_mix =  0.700 |ddv_scf|^2 =  1.601E-04

      iter #   3 total cpu time :    39.2 secs   av.it.:   7.6
      thresh= 1.265E-03 alpha_mix =  0.700 |ddv_scf|^2 =  1.140E-06

      iter #   4 total cpu time :    40.2 secs   av.it.:   8.4
      thresh= 1.068E-04 alpha_mix =  0.700 |ddv_scf|^2 =  5.655E-08

      iter #   5 total cpu time :    40.9 secs   av.it.:   8.3
      thresh= 2.378E-05 alpha_mix =  0.700 |ddv_scf|^2 =  7.268E-09

      iter #   6 total cpu time :    41.8 secs   av.it.:   8.5
      thresh= 8.525E-06 alpha_mix =  0.700 |ddv_scf|^2 =  7.942E-11

      iter #   7 total cpu time :    42.6 secs   av.it.:   8.8
      thresh= 8.912E-07 alpha_mix =  0.700 |ddv_scf|^2 =  2.863E-12

      iter #   8 total cpu time :    43.3 secs   av.it.:   8.6
      thresh= 1.692E-07 alpha_mix =  0.700 |ddv_scf|^2 =  1.681E-13

     End of self-consistent calculation

     Convergence has been achieved 


     Representation #  2 mode #   2

     Self-consistent Calculation

      iter #   1 total cpu time :    44.1 secs   av.it.:   5.4
      thresh= 1.000E-02 alpha_mix =  0.700 |ddv_scf|^2 =  1.090E-04

      iter #   2 total cpu time :    44.9 secs   av.it.:   8.7
      thresh= 1.044E-03 alpha_mix =  0.700 |ddv_scf|^2 =  3.105E-04

      iter #   3 total cpu time :    45.7 secs   av.it.:   7.4
      thresh= 1.762E-03 alpha_mix =  0.700 |ddv_scf|^2 =  7.824E-07

      iter #   4 total cpu time :    46.4 secs   av.it.:   8.5
      thresh= 8.845E-05 alpha_mix =  0.700 |ddv_scf|^2 =  5.605E-08

      iter #   5 total cpu time :    47.1 secs   av.it.:   8.2
      thresh= 2.367E-05 alpha_mix =  0.700 |ddv_scf|^2 =  1.026E-08

      iter #   6 total cpu time :    48.0 secs   av.it.:   8.5
      thresh= 1.013E-05 alpha_mix =  0.700 |ddv_scf|^2 =  7.878E-11

      iter #   7 total cpu time :    48.8 secs   av.it.:   8.8
      thresh= 8.876E-07 alpha_mix =  0.700 |ddv_scf|^2 =  2.469E-12

      iter #   8 total cpu time :    49.7 secs   av.it.:   8.7
      thresh= 1.571E-07 alpha_mix =  0.700 |ddv_scf|^2 =  5.185E-13

     End of self-consistent calculation

     Convergence has been achieved 


     Representation #  3 mode #   3

     Self-consistent Calculation

      iter #   1 total cpu time :    50.3 secs   av.it.:   5.3
      thresh= 1.000E-02 alpha_mix =  0.700 |ddv_scf|^2 =  8.542E-05

      iter #   2 total cpu time :    51.1 secs   av.it.:   8.8
      thresh= 9.242E-04 alpha_mix =  0.700 |ddv_scf|^2 =  2.279E-04

      iter #   3 total cpu time :    52.0 secs   av.it.:   7.4
      thresh= 1.510E-03 alpha_mix =  0.700 |ddv_scf|^2 =  1.337E-06

      iter #   4 total cpu time :    52.7 secs   av.it.:   8.2
      thresh= 1.156E-04 alpha_mix =  0.700 |ddv_scf|^2 =  5.712E-08

      iter #   5 total cpu time :    53.6 secs   av.it.:   8.4
      thresh= 2.390E-05 alpha_mix =  0.700 |ddv_scf|^2 =  1.052E-08

      iter #   6 total cpu time :    54.4 secs   av.it.:   8.5
      thresh= 1.026E-05 alpha_mix =  0.700 |ddv_scf|^2 =  4.625E-11

      iter #   7 total cpu time :    55.2 secs   av.it.:   8.7
      thresh= 6.801E-07 alpha_mix =  0.700 |ddv_scf|^2 =  1.610E-12

      iter #   8 total cpu time :    56.1 secs   av.it.:   8.8
      thresh= 1.269E-07 alpha_mix =  0.700 |ddv_scf|^2 =  2.760E-13

     End of self-consistent calculation

     Convergence has been achieved 


     Representation #  4 mode #   4

     Self-consistent Calculation

      iter #   1 total cpu time :    56.8 secs   av.it.:   5.2
      thresh= 1.000E-02 alpha_mix =  0.700 |ddv_scf|^2 =  3.770E-05

      iter #   2 total cpu time :    57.7 secs   av.it.:   8.9
[...]
        k(   59) = (  -0.8750000   0.1250000  -0.1250000), wk =   0.0625000
        k(   60) = (  -1.3750000  -0.8750000  -0.1250000), wk =   0.0000000
        k(   61) = (  -1.1250000   0.3750000  -0.3750000), wk =   0.0625000
        k(   62) = (  -1.6250000  -0.6250000  -0.3750000), wk =   0.0000000
        k(   63) = (  -0.3750000   0.3750000   1.1250000), wk =   0.0625000
        k(   64) = (  -0.8750000  -0.6250000   1.1250000), wk =   0.0000000

     Dense  grid:     2741 G-vectors     FFT dimensions: (  20,  20,  20)

     Estimated max dynamical RAM per process >       0.33MB

     Estimated total allocated dynamical RAM >       1.31MB

     Check: negative/imaginary core charge=   -0.000005    0.000000

     The potential is recalculated from file :
     ./_ph0/silicon.10.333.save/charge-density.dat

     Starting wfc are    8 atomic wfcs

     Band Structure Calculation
     Davidson diagonalization with overlap

     ethr =  1.25E-10,  avg # of iterations = 11.6

     total cpu time spent up to now is        7.4 secs

     End of band structure calculation

          k =-0.1250 0.1250 0.1250 (   338 PWs)   bands (ev):

    -5.6300   4.3929   5.7016   5.7016

          k =-0.6250-0.8750 0.1250 (   361 PWs)   bands (ev):

    -2.4388  -0.8990   2.0249   3.0962

          k =-0.3750 0.3750-0.1250 (   352 PWs)   bands (ev):

    -4.6061   1.4003   3.7206   5.2197

          k =-0.8750-0.6250-0.1250 (   361 PWs)   bands (ev):

    -2.4388  -0.8990   2.0249   3.0962

          k = 0.3750-0.3750 0.6250 (   361 PWs)   bands (ev):

    -3.4707  -0.6724   3.7390   4.4497

          k =-0.1250-1.3750 0.6250 (   361 PWs)   bands (ev):

    -2.9755  -0.5927   2.0818   4.1339

          k = 0.1250-0.1250 0.3750 (   353 PWs)   bands (ev):

    -5.1037   2.7743   4.6946   4.7583

          k =-0.3750-1.1250 0.3750 (   361 PWs)   bands (ev):

    -2.9755  -0.5927   2.0818   4.1339

          k =-0.1250 0.6250 0.1250 (   351 PWs)   bands (ev):

    -4.0743   1.0620   3.3731   3.8214

          k =-0.6250-0.3750 0.1250 (   357 PWs)   bands (ev):

    -3.6604   0.1926   2.7333   4.0970

          k = 0.6250-0.1250 0.8750 (   361 PWs)   bands (ev):

    -2.4388  -0.8990   2.0249   3.0962

          k = 0.1250-1.1250 0.8750 (   358 PWs)   bands (ev):

    -2.6052  -0.8019   2.6310   3.3549

          k = 0.3750 0.1250 0.6250 (   357 PWs)   bands (ev):

    -3.6604   0.1926   2.7333   4.0970

          k =-0.1250-0.8750 0.6250 (   361 PWs)   bands (ev):

    -2.4388  -0.8990   2.0249   3.0962

          k =-0.1250-0.8750 0.1250 (   358 PWs)   bands (ev):

    -2.6052  -0.8019   2.6310   3.3549

          k =-0.6250-1.8750 0.1250 (   351 PWs)   bands (ev):

    -4.0743   1.0620   3.3731   3.8214

          k =-0.3750 0.3750 0.3750 (   353 PWs)   bands (ev):

    -4.1750   0.1147   4.9135   4.9135

          k =-0.8750-0.6250 0.3750 (   357 PWs)   bands (ev):

    -3.6604   0.1926   2.7333   4.0970

          k = 0.3750-0.3750 1.1250 (   361 PWs)   bands (ev):

    -2.9755  -0.5927   2.0818   4.1339

          k =-0.1250-1.3750 1.1250 (   361 PWs)   bands (ev):

    -2.4388  -0.8990   2.0249   3.0962

          k = 0.1250-0.3750 0.3750 (   352 PWs)   bands (ev):

    -4.6061   1.4003   3.7206   5.2197

          k =-0.3750-1.3750 0.3750 (   361 PWs)   bands (ev):

    -3.4707  -0.6724   3.7390   4.4497

          k = 0.3750-0.3750-0.1250 (   352 PWs)   bands (ev):

    -4.6061   1.4003   3.7206   5.2197

          k =-0.1250-1.3750-0.1250 (   351 PWs)   bands (ev):

    -4.0743   1.0620   3.3731   3.8214

          k =-0.6250 0.3750-0.3750 (   361 PWs)   bands (ev):

    -3.4707  -0.6724   3.7390   4.4497

          k =-1.1250-0.6250-0.3750 (   357 PWs)   bands (ev):

    -3.6604   0.1926   2.7333   4.0970

          k =-0.3750 0.3750 0.6250 (   361 PWs)   bands (ev):

    -3.4707  -0.6724   3.7390   4.4497

          k =-0.8750-0.6250 0.6250 (   352 PWs)   bands (ev):

    -4.6061   1.4003   3.7206   5.2197

          k =-0.3750 0.1250-0.1250 (   353 PWs)   bands (ev):

    -5.1037   2.7743   4.6946   4.7583

          k =-0.8750-0.8750-0.1250 (   358 PWs)   bands (ev):

    -2.6052  -0.8019   2.6310   3.3549

          k =-0.1250 0.1250 0.3750 (   353 PWs)   bands (ev):

    -5.1037   2.7743   4.6946   4.7583

          k =-0.6250-0.8750 0.3750 (   357 PWs)   bands (ev):

    -3.6604   0.1926   2.7333   4.0970

          k = 0.1250 0.6250-0.1250 (   351 PWs)   bands (ev):

    -4.0743   1.0620   3.3731   3.8214

          k =-0.3750-0.3750-0.1250 (   352 PWs)   bands (ev):

    -4.6061   1.4003   3.7206   5.2197

          k = 0.6250 0.1250-0.1250 (   351 PWs)   bands (ev):

    -4.0743   1.0620   3.3731   3.8214

          k = 0.1250-0.8750-0.1250 (   358 PWs)   bands (ev):

    -2.6052  -0.8019   2.6310   3.3549

          k =-0.8750 0.1250-0.6250 (   361 PWs)   bands (ev):

    -2.4388  -0.8990   2.0249   3.0962

          k =-1.3750-0.8750-0.6250 (   352 PWs)   bands (ev):

    -4.6061   1.4003   3.7206   5.2197

          k = 0.8750-0.1250 0.6250 (   361 PWs)   bands (ev):

    -2.4388  -0.8990   2.0249   3.0962

          k = 0.3750-1.1250 0.6250 (   357 PWs)   bands (ev):

    -3.6604   0.1926   2.7333   4.0970

          k =-0.6250 0.1250 0.8750 (   361 PWs)   bands (ev):

    -2.4388  -0.8990   2.0249   3.0962

          k =-1.1250-0.8750 0.8750 (   338 PWs)   bands (ev):

    -5.6300   4.3929   5.7016   5.7016

          k =-0.1250 0.8750 0.6250 (   361 PWs)   bands (ev):

    -2.4388  -0.8990   2.0249   3.0962

          k =-0.6250-0.1250 0.6250 (   361 PWs)   bands (ev):

    -2.9755  -0.5927   2.0818   4.1339

          k = 0.1250 0.8750-0.6250 (   361 PWs)   bands (ev):

    -2.4388  -0.8990   2.0249   3.0962

          k =-0.3750-0.1250-0.6250 (   357 PWs)   bands (ev):

    -3.6604   0.1926   2.7333   4.0970

          k =-0.6250-0.1250-0.3750 (   357 PWs)   bands (ev):

    -3.6604   0.1926   2.7333   4.0970

          k =-1.1250-1.1250-0.3750 (   351 PWs)   bands (ev):

    -4.0743   1.0620   3.3731   3.8214

          k = 0.6250 0.1250 0.3750 (   357 PWs)   bands (ev):

    -3.6604   0.1926   2.7333   4.0970

          k = 0.1250-0.8750 0.3750 (   361 PWs)   bands (ev):

    -2.4388  -0.8990   2.0249   3.0962

          k =-0.3750-0.1250 0.6250 (   357 PWs)   bands (ev):

    -3.6604   0.1926   2.7333   4.0970

          k =-0.8750-1.1250 0.6250 (   353 PWs)   bands (ev):

    -5.1037   2.7743   4.6946   4.7583

          k = 0.1250 0.6250 0.3750 (   357 PWs)   bands (ev):

    -3.6604   0.1926   2.7333   4.0970

          k =-0.3750-0.3750 0.3750 (   353 PWs)   bands (ev):

    -4.1750   0.1147   4.9135   4.9135

          k =-0.1250 0.6250-0.3750 (   357 PWs)   bands (ev):

    -3.6604   0.1926   2.7333   4.0970

          k =-0.6250-0.3750-0.3750 (   361 PWs)   bands (ev):

    -3.4707  -0.6724   3.7390   4.4497

          k = 0.1250-0.8750-0.1250 (   358 PWs)   bands (ev):

    -2.6052  -0.8019   2.6310   3.3549

          k =-0.3750-1.8750-0.1250 (   353 PWs)   bands (ev):

    -5.1037   2.7743   4.6946   4.7583

          k =-0.8750 0.1250-0.1250 (   358 PWs)   bands (ev):

    -2.6052  -0.8019   2.6310   3.3549

          k =-1.3750-0.8750-0.1250 (   361 PWs)   bands (ev):

    -2.4388  -0.8990   2.0249   3.0962

          k =-1.1250 0.3750-0.3750 (   361 PWs)   bands (ev):

    -2.9755  -0.5927   2.0818   4.1339

          k =-1.6250-0.6250-0.3750 (   361 PWs)   bands (ev):

    -3.4707  -0.6724   3.7390   4.4497

          k =-0.3750 0.3750 1.1250 (   361 PWs)   bands (ev):

    -2.9755  -0.5927   2.0818   4.1339

          k =-0.8750-0.6250 1.1250 (   353 PWs)   bands (ev):

    -5.1037   2.7743   4.6946   4.7583

     highest occupied level (ev):     5.7016

     Writing output data file silicon.10.333.save

                                                                                

     bravais-lattice index     =            2
     lattice parameter (alat)  =      10.3330  a.u.
     unit-cell volume          =     275.8159 (a.u.)^3
     number of atoms/cell      =            2
     number of atomic types    =            1
     kinetic-energy cut-off    =      18.0000  Ry
     charge density cut-off    =      72.0000  Ry
     convergence threshold     =      1.0E-12
     beta                      =       0.7000
     number of iterations used =            4
     Exchange-correlation      = SLA  PW   PBE  PBE ( 1  4  3  4 0 0)


     celldm(1)=   10.33300  celldm(2)=    0.00000  celldm(3)=    0.00000
     celldm(4)=    0.00000  celldm(5)=    0.00000  celldm(6)=    0.00000

     crystal axes: (cart. coord. in units of alat)
               a(1) = ( -0.5000  0.0000  0.5000 )  
               a(2) = (  0.0000  0.5000  0.5000 )  
               a(3) = ( -0.5000  0.5000  0.0000 )  

     reciprocal axes: (cart. coord. in units 2 pi/alat)
               b(1) = ( -1.0000 -1.0000  1.0000 )  
               b(2) = (  1.0000  1.0000  1.0000 )  
               b(3) = ( -1.0000  1.0000 -1.0000 )  


     Atoms inside the unit cell: 

     Cartesian axes

     site n.  atom      mass           positions (alat units)
        1     Si  28.0860   tau(    1) = (    0.00000    0.00000    0.00000  )
        2     Si  28.0860   tau(    2) = (    0.25000    0.25000    0.25000  )

     Computing dynamical matrix for 
                    q = (  -0.5000000  -1.0000000   0.0000000 )

      8 Sym.Ops. (no q -> -q+G )


     G cutoff =  194.7268  (    685 G-vectors)     FFT grid: ( 20, 20, 20)
     number of k points=    64

     PseudoPot. # 1 for Si read from file:
     /home/max/quantum_espresso/qe-6.1/pseudo/si_pbe_v1.uspp.F.UPF.txt
     MD5 check sum: a056efeee980c13900f22a371efd63c1
     Pseudo is Ultrasoft + core correction, Zval =  4.0
     Generated by new atomic code, or converted to UPF format
     Using radial grid of  899 points,  6 beta functions with: 
                l(1) =   0
                l(2) =   0
                l(3) =   1
                l(4) =   1
                l(5) =   2
                l(6) =   2
     Q(r) pseudized with  8 coefficients,  rinner =    0.900   0.900   0.900
                                                       0.900   0.900


     Atomic displacements:
     There are   3 irreducible representations

     Representation     1      2 modes -  To be done

     Representation     2      2 modes -  To be done

     Representation     3      2 modes -  To be done



     Alpha used in Ewald sum =   0.7000
     PHONON       :  1m24.21s CPU     1m33.14s WALL



     Representation #  1 modes #   1  2

     Self-consistent Calculation

      iter #   1 total cpu time :    93.4 secs   av.it.:   5.3
      thresh= 1.000E-02 alpha_mix =  0.700 |ddv_scf|^2 =  6.334E-06

      iter #   2 total cpu time :    94.0 secs   av.it.:   9.9
      thresh= 2.517E-04 alpha_mix =  0.700 |ddv_scf|^2 =  3.430E-06

      iter #   3 total cpu time :    94.4 secs   av.it.:   9.3
      thresh= 1.852E-04 alpha_mix =  0.700 |ddv_scf|^2 =  8.445E-09

      iter #   4 total cpu time :    94.7 secs   av.it.:   9.1
      thresh= 9.189E-06 alpha_mix =  0.700 |ddv_scf|^2 =  1.915E-11

      iter #   5 total cpu time :    95.1 secs   av.it.:   9.2
      thresh= 4.376E-07 alpha_mix =  0.700 |ddv_scf|^2 =  5.291E-13

     End of self-consistent calculation

     Convergence has been achieved 


     Representation #  2 modes #   3  4

     Self-consistent Calculation

      iter #   1 total cpu time :    95.4 secs   av.it.:   5.2
      thresh= 1.000E-02 alpha_mix =  0.700 |ddv_scf|^2 =  9.816E-06

      iter #   2 total cpu time :    96.0 secs   av.it.:   9.9
      thresh= 3.133E-04 alpha_mix =  0.700 |ddv_scf|^2 =  1.306E-05

      iter #   3 total cpu time :    96.3 secs   av.it.:   9.1
      thresh= 3.613E-04 alpha_mix =  0.700 |ddv_scf|^2 =  9.931E-09

      iter #   4 total cpu time :    96.7 secs   av.it.:   8.9
      thresh= 9.966E-06 alpha_mix =  0.700 |ddv_scf|^2 =  8.079E-11

      iter #   5 total cpu time :    97.1 secs   av.it.:   9.4
      thresh= 8.989E-07 alpha_mix =  0.700 |ddv_scf|^2 =  1.735E-12

      iter #   6 total cpu time :    97.5 secs   av.it.:   9.1
      thresh= 1.317E-07 alpha_mix =  0.700 |ddv_scf|^2 =  1.466E-14

     End of self-consistent calculation

     Convergence has been achieved 


     Representation #  3 modes #   5  6

     Self-consistent Calculation

      iter #   1 total cpu time :    97.9 secs   av.it.:   5.1
      thresh= 1.000E-02 alpha_mix =  0.700 |ddv_scf|^2 =  2.651E-06

      iter #   2 total cpu time :    98.3 secs   av.it.:   9.7
      thresh= 1.628E-04 alpha_mix =  0.700 |ddv_scf|^2 =  1.447E-06

      iter #   3 total cpu time :    98.7 secs   av.it.:   9.1
      thresh= 1.203E-04 alpha_mix =  0.700 |ddv_scf|^2 =  8.322E-09

      iter #   4 total cpu time :    99.0 secs   av.it.:   8.8
      thresh= 9.123E-06 alpha_mix =  0.700 |ddv_scf|^2 =  4.277E-11

      iter #   5 total cpu time :    99.4 secs   av.it.:   9.1
      thresh= 6.540E-07 alpha_mix =  0.700 |ddv_scf|^2 =  6.989E-13

     End of self-consistent calculation

     Convergence has been achieved 

     Number of q in the star =    6
     List of q in the star:
          1  -0.500000000  -1.000000000   0.000000000
          2   0.000000000   1.000000000   0.500000000
          3   0.000000000  -1.000000000  -0.500000000
          4   0.500000000   1.000000000   0.000000000
          5  -1.000000000  -0.500000000   0.000000000
          6   0.000000000  -0.500000000  -1.000000000

     Diagonalizing the dynamical matrix

     q = (   -0.500000000  -1.000000000   0.000000000 ) 

 **************************************************************************
     freq (    1) =       7.000646 [THz] =     233.516409 [cm-1]
     freq (    2) =       7.000646 [THz] =     233.516409 [cm-1]
     freq (    3) =      10.784482 [THz] =     359.731593 [cm-1]
     freq (    4) =      10.784482 [THz] =     359.731593 [cm-1]
     freq (    5) =      13.785982 [THz] =     459.850847 [cm-1]
     freq (    6) =      13.785982 [THz] =     459.850847 [cm-1]
 **************************************************************************

     init_run     :      0.56s CPU      0.59s WALL (       7 calls)
     electrons    :      5.31s CPU      5.99s WALL (       7 calls)

     Called by init_run:
     wfcinit      :      0.00s CPU      0.00s WALL (       7 calls)
     potinit      :      0.02s CPU      0.02s WALL (       7 calls)

     Called by electrons:
     c_bands      :      5.30s CPU      5.98s WALL (       7 calls)
     v_of_rho     :      0.01s CPU      0.01s WALL (       8 calls)
     newd         :      0.02s CPU      0.03s WALL (       8 calls)

     Called by c_bands:
     init_us_2    :      0.70s CPU      0.76s WALL (   17588 calls)
     cegterg      :      4.49s CPU      5.09s WALL (     796 calls)

     Called by sum_band:

     Called by *egterg:
     h_psi        :     49.44s CPU     55.10s WALL (  152224 calls)
     s_psi        :      5.88s CPU      6.48s WALL (  309168 calls)
     g_psi        :      0.03s CPU      0.03s WALL (    9268 calls)
     cdiaghg      :      0.49s CPU      0.53s WALL (   10064 calls)

     Called by h_psi:
     h_psi:pot    :     49.25s CPU     54.88s WALL (  152224 calls)
     h_psi:calbec :      5.35s CPU      5.96s WALL (  152224 calls)
     vloc_psi     :     40.73s CPU     45.44s WALL (  152224 calls)
     add_vuspsi   :      2.94s CPU      3.24s WALL (  152224 calls)

     General routines
     calbec       :     11.56s CPU     12.88s WALL (  345540 calls)
     fft          :      0.64s CPU      0.71s WALL (    5239 calls)
     ffts         :      0.17s CPU      0.20s WALL (    2748 calls)
     fftw         :     47.47s CPU     53.02s WALL ( 1378206 calls)
     davcio       :      0.31s CPU      0.36s WALL (   79045 calls)

     Parallel routines
     fft_scatter  :     15.00s CPU     17.09s WALL ( 1386193 calls)

     PHONON       :  1m29.45s CPU     1m39.42s WALL

     INITIALIZATION: 
     phq_setup    :      0.06s CPU      0.06s WALL (       8 calls)
     phq_init     :      2.17s CPU      2.23s WALL (       8 calls)

     phq_init     :      2.17s CPU      2.23s WALL (       8 calls)
     set_drhoc    :      0.28s CPU      0.29s WALL (      24 calls)
     init_vloc    :      0.01s CPU      0.01s WALL (       8 calls)
     init_us_1    :      0.52s CPU      0.54s WALL (       8 calls)
     newd         :      0.02s CPU      0.03s WALL (       8 calls)
     dvanqq       :      0.25s CPU      0.26s WALL (       8 calls)
     drho         :      1.13s CPU      1.17s WALL (       8 calls)

     DYNAMICAL MATRIX:
     dynmat0      :      0.54s CPU      0.54s WALL (       8 calls)
     phqscf       :     78.65s CPU     87.61s WALL (       8 calls)
     dynmatrix    :      0.01s CPU      0.01s WALL (       8 calls)

     phqscf       :     78.65s CPU     87.61s WALL (       8 calls)
     solve_linter :     77.84s CPU     86.70s WALL (      32 calls)
     drhodv       :      0.59s CPU      0.67s WALL (      32 calls)

     dynmat0      :      0.54s CPU      0.54s WALL (       8 calls)
     dynmat_us    :      0.30s CPU      0.30s WALL (       8 calls)
     d2ionq       :      0.01s CPU      0.01s WALL (       8 calls)
     dynmatcc     :      0.21s CPU      0.22s WALL (       8 calls)

     dynmat_us    :      0.30s CPU      0.30s WALL (       8 calls)
     addusdynmat  :      0.00s CPU      0.00s WALL (       8 calls)

     phqscf       :     78.65s CPU     87.61s WALL (       8 calls)
     solve_linter :     77.84s CPU     86.70s WALL (      32 calls)

     solve_linter :     77.84s CPU     86.70s WALL (      32 calls)
     dvqpsi_us    :      1.77s CPU      2.04s WALL (    2508 calls)
     ortho        :      1.37s CPU      1.57s WALL (   15550 calls)
     cgsolve      :     61.20s CPU     68.17s WALL (   15550 calls)
     incdrhoscf   :      5.37s CPU      6.00s WALL (   15550 calls)
     addusddens   :      1.18s CPU      1.26s WALL (     228 calls)
     vpsifft      :      3.89s CPU      4.32s WALL (   12922 calls)
     dv_of_drho   :      0.26s CPU      0.29s WALL (     295 calls)
     mix_pot      :      0.06s CPU      0.06s WALL (     201 calls)
     psymdvscf    :      0.82s CPU      0.86s WALL (     196 calls)
     newdq        :      1.28s CPU      1.38s WALL (     201 calls)
     adddvscf     :      0.47s CPU      0.52s WALL (   13042 calls)
     drhodvus     :      0.00s CPU      0.00s WALL (      32 calls)

     dvqpsi_us    :      1.77s CPU      2.04s WALL (    2508 calls)
     dvqpsi_us_on :      0.84s CPU      0.94s WALL (    2508 calls)

     cgsolve      :     61.20s CPU     68.17s WALL (   15550 calls)
     ch_psi       :     58.76s CPU     65.38s WALL (  141364 calls)

     ch_psi       :     58.76s CPU     65.38s WALL (  141364 calls)
     h_psi        :     49.44s CPU     55.10s WALL (  152224 calls)
     last         :      9.91s CPU     11.05s WALL (  141364 calls)

     h_psi        :     49.44s CPU     55.10s WALL (  152224 calls)
     add_vuspsi   :      2.94s CPU      3.24s WALL (  152224 calls)

     incdrhoscf   :      5.37s CPU      6.00s WALL (   15550 calls)
     addusdbec    :      0.79s CPU      0.86s WALL (   17998 calls)

     drhodvus     :      0.00s CPU      0.00s WALL (      32 calls)

      General routines
     calbec       :     11.56s CPU     12.88s WALL (  345540 calls)
     fft          :      0.64s CPU      0.71s WALL (    5239 calls)
     ffts         :      0.17s CPU      0.20s WALL (    2748 calls)
     fftw         :     47.47s CPU     53.02s WALL ( 1378206 calls)
     davcio       :      0.31s CPU      0.36s WALL (   79045 calls)
     write_rec    :      0.21s CPU      0.24s WALL (     233 calls)


     PHONON       :  1m29.45s CPU     1m39.43s WALL


   This run was terminated on:  12:25:14   9Nov2017            

=------------------------------------------------------------------------------=
   JOB DONE.
=------------------------------------------------------------------------------=
