
     Program PHONON v.6.1 (svn rev. 13369) starts on  9Nov2017 at 17:54:27 

     This program is part of the open-source Quantum ESPRESSO suite
     for quantum simulation of materials; please cite
         "P. Giannozzi et al., J. Phys.:Condens. Matter 21 395502 (2009);
          URL http://www.quantum-espresso.org", 
     in publications or presentations arising from this work. More details at
     http://www.quantum-espresso.org/quote

     Parallel version (MPI), running on     4 processors
     R & G space division:  proc/nbgrp/npool/nimage =       4

     Reading data from directory:
     ./silicon.10.410.save

   Info: using nr1, nr2, nr3 values from input

   Info: using nr1, nr2, nr3 values from input

     IMPORTANT: XC functional enforced from input :
     Exchange-correlation      = SLA  PW   PBE  PBE ( 1  4  3  4 0 0)
     Any further DFT definition will be discarded
     Please, verify this is what you really want


     Parallelization info
     --------------------
     sticks:   dense  smooth     PW     G-vecs:    dense   smooth      PW
     Min          66      66     22                  722      722     152
     Max          67      67     23                  724      724     153
     Sum         265     265     91                 2891     2891     609


     Check: negative/imaginary core charge=   -0.000006    0.000000


     Dynamical matrices for ( 4, 4, 4)  uniform grid of q-points
     (   8q-points):
       N         xq(1)         xq(2)         xq(3) 
       1   0.000000000   0.000000000   0.000000000
       2  -0.250000000   0.250000000  -0.250000000
       3   0.500000000  -0.500000000   0.500000000
       4   0.000000000   0.500000000   0.000000000
       5   0.750000000  -0.250000000   0.750000000
       6   0.500000000   0.000000000   0.500000000
       7   0.000000000  -1.000000000   0.000000000
       8  -0.500000000  -1.000000000   0.000000000

     Calculation of q =    0.0000000   0.0000000   0.0000000

                                                                                

     bravais-lattice index     =            2
     lattice parameter (alat)  =      10.4100  a.u.
     unit-cell volume          =     282.0280 (a.u.)^3
     number of atoms/cell      =            2
     number of atomic types    =            1
     kinetic-energy cut-off    =      18.0000  Ry
     charge density cut-off    =      72.0000  Ry
     convergence threshold     =      1.0E-12
     beta                      =       0.7000
     number of iterations used =            4
     Exchange-correlation      = SLA  PW   PBE  PBE ( 1  4  3  4 0 0)


     celldm(1)=   10.41000  celldm(2)=    0.00000  celldm(3)=    0.00000
     celldm(4)=    0.00000  celldm(5)=    0.00000  celldm(6)=    0.00000

     crystal axes: (cart. coord. in units of alat)
               a(1) = ( -0.5000  0.0000  0.5000 )  
               a(2) = (  0.0000  0.5000  0.5000 )  
               a(3) = ( -0.5000  0.5000  0.0000 )  

     reciprocal axes: (cart. coord. in units 2 pi/alat)
               b(1) = ( -1.0000 -1.0000  1.0000 )  
               b(2) = (  1.0000  1.0000  1.0000 )  
               b(3) = ( -1.0000  1.0000 -1.0000 )  


     Atoms inside the unit cell: 

     Cartesian axes

     site n.  atom      mass           positions (alat units)
        1     Si  28.0860   tau(    1) = (    0.00000    0.00000    0.00000  )
        2     Si  28.0860   tau(    2) = (    0.25000    0.25000    0.25000  )

     Computing dynamical matrix for 
                    q = (   0.0000000   0.0000000   0.0000000 )

     49 Sym.Ops. (with q -> -q+G )


     G cutoff =  197.6397  (    722 G-vectors)     FFT grid: ( 20, 20, 20)
     number of k points=    10

     PseudoPot. # 1 for Si read from file:
     /home/max/quantum_espresso/qe-6.1/pseudo/si_pbe_v1.uspp.F.UPF.txt
     MD5 check sum: a056efeee980c13900f22a371efd63c1
     Pseudo is Ultrasoft + core correction, Zval =  4.0
     Generated by new atomic code, or converted to UPF format
     Using radial grid of  899 points,  6 beta functions with: 
                l(1) =   0
                l(2) =   0
                l(3) =   1
                l(4) =   1
                l(5) =   2
                l(6) =   2
     Q(r) pseudized with  8 coefficients,  rinner =    0.900   0.900   0.900
                                                       0.900   0.900

     Mode symmetry, O_h (m-3m)  point group:


     Electric field:
     Dielectric constant
     Born effective charges in two ways 


     Atomic displacements:
     There are   2 irreducible representations

     Representation     1      3 modes -T_2g G_25' G_5+  To be done

     Representation     2      3 modes -T_1u G_15  G_4-  To be done



     Alpha used in Ewald sum =   0.7000
     PHONON       :     0.39s CPU         0.41s WALL


     Electric Fields Calculation

      iter #   1 total cpu time :     0.8 secs   av.it.:   5.6
      thresh= 1.000E-02 alpha_mix =  0.700 |ddv_scf|^2 =  9.609E-07

      iter #   2 total cpu time :     1.0 secs   av.it.:   9.9
      thresh= 9.803E-05 alpha_mix =  0.700 |ddv_scf|^2 =  6.291E-08

      iter #   3 total cpu time :     1.1 secs   av.it.:   9.8
      thresh= 2.508E-05 alpha_mix =  0.700 |ddv_scf|^2 =  5.002E-09

      iter #   4 total cpu time :     1.4 secs   av.it.:   9.0
      thresh= 7.072E-06 alpha_mix =  0.700 |ddv_scf|^2 =  3.034E-11

      iter #   5 total cpu time :     1.6 secs   av.it.:   9.2
      thresh= 5.509E-07 alpha_mix =  0.700 |ddv_scf|^2 =  1.552E-14

     End of electric fields calculation

          Dielectric constant in cartesian axis 

          (      14.046540198       0.000000000       0.000000000 )
          (       0.000000000      14.046540198       0.000000000 )
          (       0.000000000       0.000000000      14.046540198 )

          Effective charges (d Force / dE) in cartesian axis

           atom      1   Si 
      Ex  (       -0.03334        0.00000        0.00000 )
      Ey  (        0.00000       -0.03334        0.00000 )
      Ez  (        0.00000       -0.00000       -0.03334 )
           atom      2   Si 
      Ex  (       -0.03334       -0.00000        0.00000 )
      Ey  (       -0.00000       -0.03334       -0.00000 )
      Ez  (        0.00000       -0.00000       -0.03334 )


     Representation #  1 modes #   1  2  3

     Self-consistent Calculation

      iter #   1 total cpu time :     2.0 secs   av.it.:   5.0
      thresh= 1.000E-02 alpha_mix =  0.700 |ddv_scf|^2 =  1.858E-07

      iter #   2 total cpu time :     2.2 secs   av.it.:  10.0
      thresh= 4.310E-05 alpha_mix =  0.700 |ddv_scf|^2 =  1.029E-08

      iter #   3 total cpu time :     2.4 secs   av.it.:   9.5
      thresh= 1.014E-05 alpha_mix =  0.700 |ddv_scf|^2 =  7.112E-10

      iter #   4 total cpu time :     2.6 secs   av.it.:   9.1
      thresh= 2.667E-06 alpha_mix =  0.700 |ddv_scf|^2 =  1.835E-12

      iter #   5 total cpu time :     2.8 secs   av.it.:   9.4
      thresh= 1.355E-07 alpha_mix =  0.700 |ddv_scf|^2 =  1.549E-14

     End of self-consistent calculation

     Convergence has been achieved 


     Representation #  2 modes #   4  5  6

     Self-consistent Calculation

      iter #   1 total cpu time :     3.0 secs   av.it.:   5.0
      thresh= 1.000E-02 alpha_mix =  0.700 |ddv_scf|^2 =  1.935E-07

      iter #   2 total cpu time :     3.2 secs   av.it.:   9.6
      thresh= 4.399E-05 alpha_mix =  0.700 |ddv_scf|^2 =  1.602E-08

      iter #   3 total cpu time :     3.4 secs   av.it.:   9.2
      thresh= 1.266E-05 alpha_mix =  0.700 |ddv_scf|^2 =  9.603E-10

      iter #   4 total cpu time :     3.7 secs   av.it.:   9.5
      thresh= 3.099E-06 alpha_mix =  0.700 |ddv_scf|^2 =  5.592E-12

      iter #   5 total cpu time :     3.9 secs   av.it.:   9.1
      thresh= 2.365E-07 alpha_mix =  0.700 |ddv_scf|^2 =  5.150E-15

     End of self-consistent calculation

     Convergence has been achieved 

     Number of q in the star =    1
     List of q in the star:
          1   0.000000000   0.000000000   0.000000000

          Dielectric constant in cartesian axis 

          (      14.046540198       0.000000000       0.000000000 )
          (       0.000000000      14.046540198       0.000000000 )
          (       0.000000000       0.000000000      14.046540198 )

          Effective charges (d Force / dE) in cartesian axis

           atom      1   Si 
      Ex  (       -0.03334        0.00000        0.00000 )
      Ey  (        0.00000       -0.03334        0.00000 )
      Ez  (        0.00000       -0.00000       -0.03334 )
           atom      2   Si 
      Ex  (       -0.03334       -0.00000        0.00000 )
      Ey  (       -0.00000       -0.03334       -0.00000 )
      Ez  (        0.00000       -0.00000       -0.03334 )

          Effective charges (d P / du) in cartesian axis 

           atom      1   Si 
      Px  (       -0.07615       -0.00000       -0.00000 )
      Py  (       -0.00000       -0.07615       -0.00000 )
      Pz  (       -0.00000       -0.00000       -0.07615 )
           atom      2   Si 
      Px  (       -0.07615        0.00000        0.00000 )
      Py  (        0.00000       -0.07615       -0.00000 )
      Pz  (        0.00000       -0.00000       -0.07615 )

     Diagonalizing the dynamical matrix

     q = (    0.000000000   0.000000000   0.000000000 ) 

 **************************************************************************
     freq (    1) =       1.757750 [THz] =      58.632225 [cm-1]
     freq (    2) =       1.757750 [THz] =      58.632225 [cm-1]
     freq (    3) =       1.757750 [THz] =      58.632225 [cm-1]
     freq (    4) =      15.534016 [THz] =     518.158985 [cm-1]
     freq (    5) =      15.534016 [THz] =     518.158985 [cm-1]
     freq (    6) =      15.534016 [THz] =     518.158985 [cm-1]
 **************************************************************************

     Mode symmetry, O_h (m-3m)  point group:

     freq (  1 -  3) =         58.6  [cm-1]   --> T_1u G_15  G_4- I  
     freq (  4 -  6) =        518.2  [cm-1]   --> T_2g G_25' G_5+ R  

     Calculation of q =   -0.2500000   0.2500000  -0.2500000

   Info: using nr1, nr2, nr3 values from input

   Info: using nr1, nr2, nr3 values from input

     Parallelization info
     --------------------
     sticks:   dense  smooth     PW     G-vecs:    dense   smooth      PW
     Min          66      66     27                  722      722     175
     Max          67      67     28                  724      724     176
     Sum         265     265    109                 2891     2891     701



     bravais-lattice index     =            2
     lattice parameter (alat)  =      10.4100  a.u.
     unit-cell volume          =     282.0280 (a.u.)^3
     number of atoms/cell      =            2
     number of atomic types    =            1
     number of electrons       =         8.00
     number of Kohn-Sham states=            4
     kinetic-energy cutoff     =      18.0000  Ry
     charge density cutoff     =      72.0000  Ry
     Exchange-correlation      = SLA  PW   PBE  PBE ( 1  4  3  4 0 0)

     celldm(1)=  10.410000  celldm(2)=   0.000000  celldm(3)=   0.000000
     celldm(4)=   0.000000  celldm(5)=   0.000000  celldm(6)=   0.000000

     crystal axes: (cart. coord. in units of alat)
               a(1) = (  -0.500000   0.000000   0.500000 )  
               a(2) = (   0.000000   0.500000   0.500000 )  
               a(3) = (  -0.500000   0.500000   0.000000 )  

     reciprocal axes: (cart. coord. in units 2 pi/alat)
               b(1) = ( -1.000000 -1.000000  1.000000 )  
               b(2) = (  1.000000  1.000000  1.000000 )  
               b(3) = ( -1.000000  1.000000 -1.000000 )  


     PseudoPot. # 1 for Si read from file:
     /home/max/quantum_espresso/qe-6.1/pseudo/si_pbe_v1.uspp.F.UPF.txt
     MD5 check sum: a056efeee980c13900f22a371efd63c1
     Pseudo is Ultrasoft + core correction, Zval =  4.0
     Generated by new atomic code, or converted to UPF format
     Using radial grid of  899 points,  6 beta functions with: 
                l(1) =   0
                l(2) =   0
                l(3) =   1
                l(4) =   1
                l(5) =   2
                l(6) =   2
     Q(r) pseudized with  8 coefficients,  rinner =    0.900   0.900   0.900
                                                       0.900   0.900

     atomic species   valence    mass     pseudopotential
        Si             4.00    28.08600     Si( 1.00)

     48 Sym. Ops., with inversion, found



   Cartesian axes

     site n.     atom                  positions (alat units)
         1           Si  tau(   1) = (   0.0000000   0.0000000   0.0000000  )
         2           Si  tau(   2) = (   0.2500000   0.2500000   0.2500000  )

     number of k points=   120

     Number of k-points >= 100: set verbosity='high' to print them.

     Dense  grid:     2891 G-vectors     FFT dimensions: (  20,  20,  20)

     Estimated max dynamical RAM per process >       0.33MB

     Estimated total allocated dynamical RAM >       1.34MB

     Check: negative/imaginary core charge=   -0.000006    0.000000

     The potential is recalculated from file :
     ./_ph0/silicon.10.410.save/charge-density.dat

     Starting wfc are    8 atomic wfcs

     Band Structure Calculation
     Davidson diagonalization with overlap

     ethr =  1.25E-10,  avg # of iterations = 11.7

     total cpu time spent up to now is        0.8 secs

     End of band structure calculation

     Number of k-points >= 100: set verbosity='high' to print the bands.

     highest occupied level (ev):     5.4818

     Writing output data file silicon.10.410.save

                                                                                

     bravais-lattice index     =            2
     lattice parameter (alat)  =      10.4100  a.u.
     unit-cell volume          =     282.0280 (a.u.)^3
     number of atoms/cell      =            2
     number of atomic types    =            1
     kinetic-energy cut-off    =      18.0000  Ry
     charge density cut-off    =      72.0000  Ry
     convergence threshold     =      1.0E-12
     beta                      =       0.7000
     number of iterations used =            4
     Exchange-correlation      = SLA  PW   PBE  PBE ( 1  4  3  4 0 0)


     celldm(1)=   10.41000  celldm(2)=    0.00000  celldm(3)=    0.00000
     celldm(4)=    0.00000  celldm(5)=    0.00000  celldm(6)=    0.00000

     crystal axes: (cart. coord. in units of alat)
               a(1) = ( -0.5000  0.0000  0.5000 )  
               a(2) = (  0.0000  0.5000  0.5000 )  
               a(3) = ( -0.5000  0.5000  0.0000 )  

     reciprocal axes: (cart. coord. in units 2 pi/alat)
               b(1) = ( -1.0000 -1.0000  1.0000 )  
               b(2) = (  1.0000  1.0000  1.0000 )  
               b(3) = ( -1.0000  1.0000 -1.0000 )  


     Atoms inside the unit cell: 

     Cartesian axes

     site n.  atom      mass           positions (alat units)
        1     Si  28.0860   tau(    1) = (    0.00000    0.00000    0.00000  )
        2     Si  28.0860   tau(    2) = (    0.25000    0.25000    0.25000  )

     Computing dynamical matrix for 
                    q = (  -0.2500000   0.2500000  -0.2500000 )

      6 Sym.Ops. (no q -> -q+G )


     G cutoff =  197.6397  (    722 G-vectors)     FFT grid: ( 20, 20, 20)
     number of k points=   120

     PseudoPot. # 1 for Si read from file:
     /home/max/quantum_espresso/qe-6.1/pseudo/si_pbe_v1.uspp.F.UPF.txt
     MD5 check sum: a056efeee980c13900f22a371efd63c1
     Pseudo is Ultrasoft + core correction, Zval =  4.0
     Generated by new atomic code, or converted to UPF format
     Using radial grid of  899 points,  6 beta functions with: 
                l(1) =   0
                l(2) =   0
                l(3) =   1
                l(4) =   1
                l(5) =   2
                l(6) =   2
     Q(r) pseudized with  8 coefficients,  rinner =    0.900   0.900   0.900
                                                       0.900   0.900

     Mode symmetry, C_3v (3m)   point group:


     Atomic displacements:
     There are   4 irreducible representations

     Representation     1      1 modes -A_1  L_1  To be done

     Representation     2      1 modes -A_1  L_1  To be done

     Representation     3      2 modes -E    L_3  To be done

     Representation     4      2 modes -E    L_3  To be done



     Alpha used in Ewald sum =   0.7000
     PHONON       :     4.93s CPU         5.11s WALL



     Representation #  1 mode #   1

     Self-consistent Calculation

      iter #   1 total cpu time :     5.4 secs   av.it.:   5.5
      thresh= 1.000E-02 alpha_mix =  0.700 |ddv_scf|^2 =  2.422E-03

      iter #   2 total cpu time :     5.7 secs   av.it.:   7.5
      thresh= 4.921E-03 alpha_mix =  0.700 |ddv_scf|^2 =  3.688E-02

      iter #   3 total cpu time :     6.0 secs   av.it.:   6.3
      thresh= 1.000E-02 alpha_mix =  0.700 |ddv_scf|^2 =  1.684E-06

      iter #   4 total cpu time :     6.2 secs   av.it.:   8.2
      thresh= 1.298E-04 alpha_mix =  0.700 |ddv_scf|^2 =  1.135E-07

      iter #   5 total cpu time :     6.5 secs   av.it.:   8.1
      thresh= 3.370E-05 alpha_mix =  0.700 |ddv_scf|^2 =  4.610E-09

      iter #   6 total cpu time :     6.7 secs   av.it.:   8.0
      thresh= 6.790E-06 alpha_mix =  0.700 |ddv_scf|^2 =  3.648E-09

      iter #   7 total cpu time :     7.0 secs   av.it.:   6.3
      thresh= 6.040E-06 alpha_mix =  0.700 |ddv_scf|^2 =  7.062E-10

      iter #   8 total cpu time :     7.2 secs   av.it.:   7.2
      thresh= 2.657E-06 alpha_mix =  0.700 |ddv_scf|^2 =  4.791E-12

      iter #   9 total cpu time :     7.6 secs   av.it.:   7.2
      thresh= 2.189E-07 alpha_mix =  0.700 |ddv_scf|^2 =  2.500E-13

     End of self-consistent calculation

     Convergence has been achieved 


     Representation #  2 mode #   2

     Self-consistent Calculation

      iter #   1 total cpu time :     7.9 secs   av.it.:   5.5
      thresh= 1.000E-02 alpha_mix =  0.700 |ddv_scf|^2 =  2.422E-03

      iter #   2 total cpu time :     8.1 secs   av.it.:   7.5
      thresh= 4.921E-03 alpha_mix =  0.700 |ddv_scf|^2 =  3.688E-02

      iter #   3 total cpu time :     8.3 secs   av.it.:   6.3
      thresh= 1.000E-02 alpha_mix =  0.700 |ddv_scf|^2 =  1.684E-06

      iter #   4 total cpu time :     8.6 secs   av.it.:   8.2
      thresh= 1.298E-04 alpha_mix =  0.700 |ddv_scf|^2 =  1.135E-07

      iter #   5 total cpu time :     8.9 secs   av.it.:   8.1
      thresh= 3.370E-05 alpha_mix =  0.700 |ddv_scf|^2 =  4.610E-09

      iter #   6 total cpu time :     9.1 secs   av.it.:   8.0
      thresh= 6.790E-06 alpha_mix =  0.700 |ddv_scf|^2 =  3.648E-09

      iter #   7 total cpu time :     9.5 secs   av.it.:   6.3
      thresh= 6.040E-06 alpha_mix =  0.700 |ddv_scf|^2 =  7.062E-10

      iter #   8 total cpu time :     9.8 secs   av.it.:   7.2
      thresh= 2.657E-06 alpha_mix =  0.700 |ddv_scf|^2 =  4.791E-12

      iter #   9 total cpu time :    10.0 secs   av.it.:   7.2
      thresh= 2.189E-07 alpha_mix =  0.700 |ddv_scf|^2 =  2.500E-13

     End of self-consistent calculation

     Convergence has been achieved 


     Representation #  3 modes #   3  4

     Self-consistent Calculation

      iter #   1 total cpu time :    10.4 secs   av.it.:   4.9
      thresh= 1.000E-02 alpha_mix =  0.700 |ddv_scf|^2 =  5.372E-07

      iter #   2 total cpu time :    11.0 secs   av.it.:   9.5
      thresh= 7.329E-05 alpha_mix =  0.700 |ddv_scf|^2 =  4.034E-08

      iter #   3 total cpu time :    11.8 secs   av.it.:   9.3
      thresh= 2.009E-05 alpha_mix =  0.700 |ddv_scf|^2 =  3.479E-09

      iter #   4 total cpu time :    12.3 secs   av.it.:   8.9
      thresh= 5.899E-06 alpha_mix =  0.700 |ddv_scf|^2 =  1.149E-11

      iter #   5 total cpu time :    12.9 secs   av.it.:   9.2
      thresh= 3.389E-07 alpha_mix =  0.700 |ddv_scf|^2 =  5.106E-13

     End of self-consistent calculation

     Convergence has been achieved 


     Representation #  4 modes #   5  6

     Self-consistent Calculation

      iter #   1 total cpu time :    13.3 secs   av.it.:   5.0
      thresh= 1.000E-02 alpha_mix =  0.700 |ddv_scf|^2 =  5.371E-07

      iter #   2 total cpu time :    14.1 secs   av.it.:   9.7
      thresh= 7.328E-05 alpha_mix =  0.700 |ddv_scf|^2 =  4.028E-08

      iter #   3 total cpu time :    14.7 secs   av.it.:   9.4
      thresh= 2.007E-05 alpha_mix =  0.700 |ddv_scf|^2 =  3.475E-09

      iter #   4 total cpu time :    15.2 secs   av.it.:   9.1
      thresh= 5.895E-06 alpha_mix =  0.700 |ddv_scf|^2 =  1.149E-11

      iter #   5 total cpu time :    16.0 secs   av.it.:   9.3
      thresh= 3.390E-07 alpha_mix =  0.700 |ddv_scf|^2 =  5.110E-13

     End of self-consistent calculation

     Convergence has been achieved 

     Number of q in the star =    8
     List of q in the star:
          1  -0.250000000   0.250000000  -0.250000000
          2   0.250000000  -0.250000000  -0.250000000
          3   0.250000000  -0.250000000   0.250000000
          4   0.250000000   0.250000000   0.250000000
          5  -0.250000000  -0.250000000  -0.250000000
          6  -0.250000000  -0.250000000   0.250000000
          7  -0.250000000   0.250000000   0.250000000
          8   0.250000000   0.250000000  -0.250000000

     Diagonalizing the dynamical matrix

     q = (   -0.250000000   0.250000000  -0.250000000 ) 

 **************************************************************************
     freq (    1) =       3.400552 [THz] =     113.430215 [cm-1]
     freq (    2) =       3.400552 [THz] =     113.430215 [cm-1]
     freq (    3) =       6.800582 [THz] =     226.843009 [cm-1]
     freq (    4) =      14.635792 [THz] =     488.197471 [cm-1]
     freq (    5) =      14.907091 [THz] =     497.247039 [cm-1]
     freq (    6) =      14.907091 [THz] =     497.247039 [cm-1]
 **************************************************************************

     Mode symmetry, C_3v (3m)   point group:

     freq (  1 -  2) =        113.4  [cm-1]   --> E    L_3           
     freq (  3 -  3) =        226.8  [cm-1]   --> A_1  L_1           
     freq (  4 -  4) =        488.2  [cm-1]   --> A_1  L_1           
     freq (  5 -  6) =        497.2  [cm-1]   --> E    L_3           

     Calculation of q =    0.5000000  -0.5000000   0.5000000

   Info: using nr1, nr2, nr3 values from input

   Info: using nr1, nr2, nr3 values from input

     Parallelization info
     --------------------
     sticks:   dense  smooth     PW     G-vecs:    dense   smooth      PW
     Min          66      66     27                  722      722     186
     Max          67      67     28                  724      724     189
     Sum         265     265    109                 2891     2891     749



     bravais-lattice index     =            2
     lattice parameter (alat)  =      10.4100  a.u.
     unit-cell volume          =     282.0280 (a.u.)^3
     number of atoms/cell      =            2
     number of atomic types    =            1
     number of electrons       =         8.00
     number of Kohn-Sham states=            4
     kinetic-energy cutoff     =      18.0000  Ry
     charge density cutoff     =      72.0000  Ry
     Exchange-correlation      = SLA  PW   PBE  PBE ( 1  4  3  4 0 0)

     celldm(1)=  10.410000  celldm(2)=   0.000000  celldm(3)=   0.000000
     celldm(4)=   0.000000  celldm(5)=   0.000000  celldm(6)=   0.000000

     crystal axes: (cart. coord. in units of alat)
               a(1) = (  -0.500000   0.000000   0.500000 )  
               a(2) = (   0.000000   0.500000   0.500000 )  
               a(3) = (  -0.500000   0.500000   0.000000 )  

     reciprocal axes: (cart. coord. in units 2 pi/alat)
               b(1) = ( -1.000000 -1.000000  1.000000 )  
               b(2) = (  1.000000  1.000000  1.000000 )  
               b(3) = ( -1.000000  1.000000 -1.000000 )  


     PseudoPot. # 1 for Si read from file:
     /home/max/quantum_espresso/qe-6.1/pseudo/si_pbe_v1.uspp.F.UPF.txt
     MD5 check sum: a056efeee980c13900f22a371efd63c1
     Pseudo is Ultrasoft + core correction, Zval =  4.0
     Generated by new atomic code, or converted to UPF format
     Using radial grid of  899 points,  6 beta functions with: 
                l(1) =   0
                l(2) =   0
                l(3) =   1
                l(4) =   1
                l(5) =   2
                l(6) =   2
     Q(r) pseudized with  8 coefficients,  rinner =    0.900   0.900   0.900
                                                       0.900   0.900

     atomic species   valence    mass     pseudopotential
        Si             4.00    28.08600     Si( 1.00)

     48 Sym. Ops., with inversion, found



   Cartesian axes

     site n.     atom                  positions (alat units)
         1           Si  tau(   1) = (   0.0000000   0.0000000   0.0000000  )
         2           Si  tau(   2) = (   0.2500000   0.2500000   0.2500000  )

     number of k points=    60
                       cart. coord. in units 2pi/alat
        k(    1) = (  -0.1250000   0.1250000   0.1250000), wk =   0.0468750
        k(    2) = (   0.3750000  -0.3750000   0.6250000), wk =   0.0000000
        k(    3) = (  -0.3750000   0.3750000  -0.1250000), wk =   0.0468750
        k(    4) = (   0.1250000  -0.1250000   0.3750000), wk =   0.0000000
        k(    5) = (   0.3750000  -0.3750000   0.6250000), wk =   0.0468750
        k(    6) = (   0.8750000  -0.8750000   1.1250000), wk =   0.0000000
        k(    7) = (   0.1250000  -0.1250000   0.3750000), wk =   0.0468750
        k(    8) = (   0.6250000  -0.6250000   0.8750000), wk =   0.0000000
        k(    9) = (  -0.1250000   0.6250000   0.1250000), wk =   0.0937500
        k(   10) = (   0.3750000   0.1250000   0.6250000), wk =   0.0000000
        k(   11) = (   0.6250000  -0.1250000   0.8750000), wk =   0.0937500
        k(   12) = (   1.1250000  -0.6250000   1.3750000), wk =   0.0000000
        k(   13) = (   0.3750000   0.1250000   0.6250000), wk =   0.0937500
        k(   14) = (   0.8750000  -0.3750000   1.1250000), wk =   0.0000000
        k(   15) = (  -0.1250000  -0.8750000   0.1250000), wk =   0.0937500
        k(   16) = (   0.3750000  -1.3750000   0.6250000), wk =   0.0000000
        k(   17) = (  -0.3750000   0.3750000   0.3750000), wk =   0.0468750
        k(   18) = (   0.1250000  -0.1250000   0.8750000), wk =   0.0000000
        k(   19) = (   0.3750000  -0.3750000   1.1250000), wk =   0.0468750
        k(   20) = (   0.8750000  -0.8750000   1.6250000), wk =   0.0000000
        k(   21) = (   0.1250000  -0.1250000   0.1250000), wk =   0.0156250
        k(   22) = (   0.6250000  -0.6250000   0.6250000), wk =   0.0000000
        k(   23) = (  -0.3750000  -0.3750000  -0.1250000), wk =   0.0937500
        k(   24) = (   0.1250000  -0.8750000   0.3750000), wk =   0.0000000
        k(   25) = (  -0.1250000  -0.3750000   0.3750000), wk =   0.0468750
        k(   26) = (   0.3750000  -0.8750000   0.8750000), wk =   0.0000000
        k(   27) = (   0.3750000   0.3750000   0.6250000), wk =   0.0937500
        k(   28) = (   0.8750000  -0.1250000   1.1250000), wk =   0.0000000
        k(   29) = (   0.6250000   0.3750000  -0.3750000), wk =   0.0468750
        k(   30) = (   1.1250000  -0.1250000   0.1250000), wk =   0.0000000
        k(   31) = (   0.1250000   0.1250000   0.3750000), wk =   0.0937500
        k(   32) = (   0.6250000  -0.3750000   0.8750000), wk =   0.0000000
        k(   33) = (   0.3750000   0.1250000  -0.1250000), wk =   0.0468750
        k(   34) = (   0.8750000  -0.3750000   0.3750000), wk =   0.0000000
        k(   35) = (  -0.1250000  -0.6250000  -0.1250000), wk =   0.0468750
        k(   36) = (   0.3750000  -1.1250000   0.3750000), wk =   0.0000000
        k(   37) = (   0.1250000  -0.6250000   0.1250000), wk =   0.0468750
        k(   38) = (   0.6250000  -1.1250000   0.6250000), wk =   0.0000000
        k(   39) = (   0.6250000   0.1250000   0.8750000), wk =   0.0937500
        k(   40) = (   1.1250000  -0.3750000   1.3750000), wk =   0.0000000
        k(   41) = (  -0.8750000   0.1250000   0.6250000), wk =   0.0937500
        k(   42) = (  -0.3750000  -0.3750000   1.1250000), wk =   0.0000000
        k(   43) = (   0.8750000   0.1250000  -0.6250000), wk =   0.0937500
        k(   44) = (   1.3750000  -0.3750000  -0.1250000), wk =   0.0000000
        k(   45) = (   0.3750000  -0.1250000   0.6250000), wk =   0.0937500
        k(   46) = (   0.8750000  -0.6250000   1.1250000), wk =   0.0000000
        k(   47) = (  -0.6250000  -0.1250000   0.3750000), wk =   0.0937500
        k(   48) = (  -0.1250000  -0.6250000   0.8750000), wk =   0.0000000
        k(   49) = (   0.6250000  -0.1250000  -0.3750000), wk =   0.0937500
        k(   50) = (   1.1250000  -0.6250000   0.1250000), wk =   0.0000000
        k(   51) = (  -0.1250000   0.8750000  -0.1250000), wk =   0.0468750
        k(   52) = (   0.3750000   0.3750000   0.3750000), wk =   0.0000000
        k(   53) = (   0.1250000   0.8750000   0.1250000), wk =   0.0468750
        k(   54) = (   0.6250000   0.3750000   0.6250000), wk =   0.0000000
        k(   55) = (   0.3750000  -0.3750000   0.3750000), wk =   0.0156250
        k(   56) = (   0.8750000  -0.8750000   0.8750000), wk =   0.0000000
        k(   57) = (   0.3750000   0.3750000   1.1250000), wk =   0.0937500
        k(   58) = (   0.8750000  -0.1250000   1.6250000), wk =   0.0000000
        k(   59) = (   1.1250000   0.3750000  -0.3750000), wk =   0.0468750
        k(   60) = (   1.6250000  -0.1250000   0.1250000), wk =   0.0000000

     Dense  grid:     2891 G-vectors     FFT dimensions: (  20,  20,  20)

     Estimated max dynamical RAM per process >       0.33MB

     Estimated total allocated dynamical RAM >       1.34MB

     Check: negative/imaginary core charge=   -0.000006    0.000000

     The potential is recalculated from file :
     ./_ph0/silicon.10.410.save/charge-density.dat

     Starting wfc are    8 atomic wfcs

     Band Structure Calculation
     Davidson diagonalization with overlap

     ethr =  1.25E-10,  avg # of iterations = 11.7

     total cpu time spent up to now is        1.3 secs

     End of band structure calculation

          k =-0.1250 0.1250 0.1250 (   353 PWs)   bands (ev):

    -5.7111   4.1702   5.4818   5.4818

          k = 0.3750-0.3750 0.6250 (   364 PWs)   bands (ev):

    -3.6017  -0.8092   3.5469   4.2540

          k =-0.3750 0.3750-0.1250 (   362 PWs)   bands (ev):

    -4.7077   1.2154   3.5386   5.0057

          k = 0.1250-0.1250 0.3750 (   358 PWs)   bands (ev):

    -5.1944   2.5623   4.4984   4.5494

          k = 0.3750-0.3750 0.6250 (   364 PWs)   bands (ev):

    -3.6017  -0.8092   3.5469   4.2540

          k = 0.8750-0.8750 1.1250 (   353 PWs)   bands (ev):

    -5.7111   4.1702   5.4818   5.4818

          k = 0.1250-0.1250 0.3750 (   358 PWs)   bands (ev):

    -5.1944   2.5623   4.4984   4.5494

          k = 0.6250-0.6250 0.8750 (   362 PWs)   bands (ev):

    -4.7077   1.2154   3.5386   5.0057

          k =-0.1250 0.6250 0.1250 (   357 PWs)   bands (ev):

    -4.1854   0.8578   3.2033   3.6421

          k = 0.3750 0.1250 0.6250 (   365 PWs)   bands (ev):

    -3.7824   0.0170   2.5728   3.9124

          k = 0.6250-0.1250 0.8750 (   368 PWs)   bands (ev):

    -2.5889  -1.0705   1.8924   2.9387

          k = 1.1250-0.6250 1.3750 (   362 PWs)   bands (ev):

    -4.7077   1.2154   3.5386   5.0057

          k = 0.3750 0.1250 0.6250 (   365 PWs)   bands (ev):

    -3.7824   0.0170   2.5728   3.9124

          k = 0.8750-0.3750 1.1250 (   357 PWs)   bands (ev):

    -4.1854   0.8578   3.2033   3.6421

          k =-0.1250-0.8750 0.1250 (   364 PWs)   bands (ev):

    -2.7462  -0.9782   2.4832   3.1840

          k = 0.3750-1.3750 0.6250 (   364 PWs)   bands (ev):

    -3.6017  -0.8092   3.5469   4.2540

          k =-0.3750 0.3750 0.3750 (   359 PWs)   bands (ev):

    -4.2869  -0.0360   4.7058   4.7058

          k = 0.1250-0.1250 0.8750 (   364 PWs)   bands (ev):

    -2.7462  -0.9782   2.4832   3.1840

          k = 0.3750-0.3750 1.1250 (   369 PWs)   bands (ev):

    -3.1161  -0.7537   1.9400   3.9454

          k = 0.8750-0.8750 1.6250 (   357 PWs)   bands (ev):

    -4.1854   0.8578   3.2033   3.6421

          k = 0.1250-0.1250 0.1250 (   353 PWs)   bands (ev):

    -5.7111   4.1702   5.4818   5.4818

          k = 0.6250-0.6250 0.6250 (   359 PWs)   bands (ev):

    -4.2869  -0.0360   4.7058   4.7058

          k =-0.3750-0.3750-0.1250 (   362 PWs)   bands (ev):

    -4.7077   1.2154   3.5386   5.0057

          k = 0.1250-0.8750 0.3750 (   368 PWs)   bands (ev):

    -2.5889  -1.0705   1.8924   2.9387

          k =-0.1250-0.3750 0.3750 (   362 PWs)   bands (ev):

    -4.7077   1.2154   3.5386   5.0057

          k = 0.3750-0.8750 0.8750 (   357 PWs)   bands (ev):

    -4.1854   0.8578   3.2033   3.6421

          k = 0.3750 0.3750 0.6250 (   364 PWs)   bands (ev):

    -3.6017  -0.8092   3.5469   4.2540

          k = 0.8750-0.1250 1.1250 (   364 PWs)   bands (ev):

    -2.7462  -0.9782   2.4832   3.1840

          k = 0.6250 0.3750-0.3750 (   364 PWs)   bands (ev):

    -3.6017  -0.8092   3.5469   4.2540

          k = 1.1250-0.1250 0.1250 (   364 PWs)   bands (ev):

    -2.7462  -0.9782   2.4832   3.1840

          k = 0.1250 0.1250 0.3750 (   358 PWs)   bands (ev):

    -5.1944   2.5623   4.4984   4.5494

          k = 0.6250-0.3750 0.8750 (   365 PWs)   bands (ev):

    -3.7824   0.0170   2.5728   3.9124

          k = 0.3750 0.1250-0.1250 (   358 PWs)   bands (ev):

    -5.1944   2.5623   4.4984   4.5494

          k = 0.8750-0.3750 0.3750 (   369 PWs)   bands (ev):

    -3.1161  -0.7537   1.9400   3.9454

          k =-0.1250-0.6250-0.1250 (   357 PWs)   bands (ev):

    -4.1854   0.8578   3.2033   3.6421

          k = 0.3750-1.1250 0.3750 (   369 PWs)   bands (ev):

    -3.1161  -0.7537   1.9400   3.9454

          k = 0.1250-0.6250 0.1250 (   357 PWs)   bands (ev):

    -4.1854   0.8578   3.2033   3.6421

          k = 0.6250-1.1250 0.6250 (   362 PWs)   bands (ev):

    -4.7077   1.2154   3.5386   5.0057

          k = 0.6250 0.1250 0.8750 (   368 PWs)   bands (ev):

    -2.5889  -1.0705   1.8924   2.9387

          k = 1.1250-0.3750 1.3750 (   365 PWs)   bands (ev):

    -3.7824   0.0170   2.5728   3.9124

          k =-0.8750 0.1250 0.6250 (   368 PWs)   bands (ev):

    -2.5889  -1.0705   1.8924   2.9387

          k =-0.3750-0.3750 1.1250 (   369 PWs)   bands (ev):

    -3.1161  -0.7537   1.9400   3.9454

          k = 0.8750 0.1250-0.6250 (   368 PWs)   bands (ev):

    -2.5889  -1.0705   1.8924   2.9387

          k = 1.3750-0.3750-0.1250 (   365 PWs)   bands (ev):

    -3.7824   0.0170   2.5728   3.9124

          k = 0.3750-0.1250 0.6250 (   365 PWs)   bands (ev):

    -3.7824   0.0170   2.5728   3.9124

          k = 0.8750-0.6250 1.1250 (   358 PWs)   bands (ev):

    -5.1944   2.5623   4.4984   4.5494

          k =-0.6250-0.1250 0.3750 (   365 PWs)   bands (ev):

    -3.7824   0.0170   2.5728   3.9124

          k =-0.1250-0.6250 0.8750 (   368 PWs)   bands (ev):

    -2.5889  -1.0705   1.8924   2.9387

          k = 0.6250-0.1250-0.3750 (   365 PWs)   bands (ev):

    -3.7824   0.0170   2.5728   3.9124

          k = 1.1250-0.6250 0.1250 (   368 PWs)   bands (ev):

    -2.5889  -1.0705   1.8924   2.9387

          k =-0.1250 0.8750-0.1250 (   364 PWs)   bands (ev):

    -2.7462  -0.9782   2.4832   3.1840

          k = 0.3750 0.3750 0.3750 (   359 PWs)   bands (ev):

    -4.2869  -0.0360   4.7058   4.7058

          k = 0.1250 0.8750 0.1250 (   364 PWs)   bands (ev):

    -2.7462  -0.9782   2.4832   3.1840

          k = 0.6250 0.3750 0.6250 (   364 PWs)   bands (ev):

    -3.6017  -0.8092   3.5469   4.2540

          k = 0.3750-0.3750 0.3750 (   359 PWs)   bands (ev):

    -4.2869  -0.0360   4.7058   4.7058

          k = 0.8750-0.8750 0.8750 (   353 PWs)   bands (ev):

    -5.7111   4.1702   5.4818   5.4818

          k = 0.3750 0.3750 1.1250 (   369 PWs)   bands (ev):

    -3.1161  -0.7537   1.9400   3.9454

          k = 0.8750-0.1250 1.6250 (   368 PWs)   bands (ev):

    -2.5889  -1.0705   1.8924   2.9387

          k = 1.1250 0.3750-0.3750 (   369 PWs)   bands (ev):

    -3.1161  -0.7537   1.9400   3.9454

          k = 1.6250-0.1250 0.1250 (   358 PWs)   bands (ev):

    -5.1944   2.5623   4.4984   4.5494

     highest occupied level (ev):     5.4818

     Writing output data file silicon.10.410.save

                                                                                

     bravais-lattice index     =            2
     lattice parameter (alat)  =      10.4100  a.u.
     unit-cell volume          =     282.0280 (a.u.)^3
     number of atoms/cell      =            2
     number of atomic types    =            1
     kinetic-energy cut-off    =      18.0000  Ry
     charge density cut-off    =      72.0000  Ry
     convergence threshold     =      1.0E-12
     beta                      =       0.7000
     number of iterations used =            4
     Exchange-correlation      = SLA  PW   PBE  PBE ( 1  4  3  4 0 0)


     celldm(1)=   10.41000  celldm(2)=    0.00000  celldm(3)=    0.00000
     celldm(4)=    0.00000  celldm(5)=    0.00000  celldm(6)=    0.00000

     crystal axes: (cart. coord. in units of alat)
               a(1) = ( -0.5000  0.0000  0.5000 )  
               a(2) = (  0.0000  0.5000  0.5000 )  
               a(3) = ( -0.5000  0.5000  0.0000 )  

     reciprocal axes: (cart. coord. in units 2 pi/alat)
               b(1) = ( -1.0000 -1.0000  1.0000 )  
               b(2) = (  1.0000  1.0000  1.0000 )  
               b(3) = ( -1.0000  1.0000 -1.0000 )  


     Atoms inside the unit cell: 

     Cartesian axes

     site n.  atom      mass           positions (alat units)
        1     Si  28.0860   tau(    1) = (    0.00000    0.00000    0.00000  )
        2     Si  28.0860   tau(    2) = (    0.25000    0.25000    0.25000  )

     Computing dynamical matrix for 
                    q = (   0.5000000  -0.5000000   0.5000000 )

     13 Sym.Ops. (with q -> -q+G )


     G cutoff =  197.6397  (    722 G-vectors)     FFT grid: ( 20, 20, 20)
     number of k points=    60

     PseudoPot. # 1 for Si read from file:
     /home/max/quantum_espresso/qe-6.1/pseudo/si_pbe_v1.uspp.F.UPF.txt
     MD5 check sum: a056efeee980c13900f22a371efd63c1
     Pseudo is Ultrasoft + core correction, Zval =  4.0
     Generated by new atomic code, or converted to UPF format
     Using radial grid of  899 points,  6 beta functions with: 
                l(1) =   0
                l(2) =   0
                l(3) =   1
                l(4) =   1
                l(5) =   2
                l(6) =   2
     Q(r) pseudized with  8 coefficients,  rinner =    0.900   0.900   0.900
                                                       0.900   0.900


     Atomic displacements:
     There are   4 irreducible representations

     Representation     1      1 modes -  To be done

     Representation     2      1 modes -  To be done

     Representation     3      2 modes -  To be done

     Representation     4      2 modes -  To be done



     Alpha used in Ewald sum =   0.7000
     PHONON       :    15.91s CPU        16.74s WALL



     Representation #  1 mode #   1

     Self-consistent Calculation

      iter #   1 total cpu time :    16.9 secs   av.it.:   4.8
      thresh= 1.000E-02 alpha_mix =  0.700 |ddv_scf|^2 =  2.425E-05

      iter #   2 total cpu time :    17.0 secs   av.it.:   8.4
      thresh= 4.925E-04 alpha_mix =  0.700 |ddv_scf|^2 =  2.223E-05

      iter #   3 total cpu time :    17.1 secs   av.it.:   7.5
      thresh= 4.715E-04 alpha_mix =  0.700 |ddv_scf|^2 =  3.838E-08

      iter #   4 total cpu time :    17.3 secs   av.it.:   7.6
      thresh= 1.959E-05 alpha_mix =  0.700 |ddv_scf|^2 =  1.423E-10

      iter #   5 total cpu time :    17.6 secs   av.it.:   7.9
      thresh= 1.193E-06 alpha_mix =  0.700 |ddv_scf|^2 =  4.017E-12

      iter #   6 total cpu time :    17.7 secs   av.it.:   7.7
      thresh= 2.004E-07 alpha_mix =  0.700 |ddv_scf|^2 =  7.348E-14

     End of self-consistent calculation

     Convergence has been achieved 


     Representation #  2 mode #   2

     Self-consistent Calculation

      iter #   1 total cpu time :    17.8 secs   av.it.:   5.6
      thresh= 1.000E-02 alpha_mix =  0.700 |ddv_scf|^2 =  3.397E-04

      iter #   2 total cpu time :    18.0 secs   av.it.:   8.3
      thresh= 1.843E-03 alpha_mix =  0.700 |ddv_scf|^2 =  1.051E-03

      iter #   3 total cpu time :    18.1 secs   av.it.:   7.1
      thresh= 3.242E-03 alpha_mix =  0.700 |ddv_scf|^2 =  1.448E-07

      iter #   4 total cpu time :    18.2 secs   av.it.:   8.2
      thresh= 3.805E-05 alpha_mix =  0.700 |ddv_scf|^2 =  1.001E-08

      iter #   5 total cpu time :    18.4 secs   av.it.:   8.4
      thresh= 1.001E-05 alpha_mix =  0.700 |ddv_scf|^2 =  1.523E-10

      iter #   6 total cpu time :    18.5 secs   av.it.:   8.1
      thresh= 1.234E-06 alpha_mix =  0.700 |ddv_scf|^2 =  3.641E-12

      iter #   7 total cpu time :    18.7 secs   av.it.:   7.7
      thresh= 1.908E-07 alpha_mix =  0.700 |ddv_scf|^2 =  1.360E-14

     End of self-consistent calculation

     Convergence has been achieved 


     Representation #  3 modes #   3  4

     Self-consistent Calculation

      iter #   1 total cpu time :    18.9 secs   av.it.:   4.7
      thresh= 1.000E-02 alpha_mix =  0.700 |ddv_scf|^2 =  3.430E-07

      iter #   2 total cpu time :    19.2 secs   av.it.:   9.0
      thresh= 5.857E-05 alpha_mix =  0.700 |ddv_scf|^2 =  2.962E-08

      iter #   3 total cpu time :    19.6 secs   av.it.:   8.3
      thresh= 1.721E-05 alpha_mix =  0.700 |ddv_scf|^2 =  5.130E-10

      iter #   4 total cpu time :    19.9 secs   av.it.:   8.9
      thresh= 2.265E-06 alpha_mix =  0.700 |ddv_scf|^2 =  6.463E-12

      iter #   5 total cpu time :    20.2 secs   av.it.:   8.7
      thresh= 2.542E-07 alpha_mix =  0.700 |ddv_scf|^2 =  3.619E-14

     End of self-consistent calculation

     Convergence has been achieved 


     Representation #  4 modes #   5  6

     Self-consistent Calculation

      iter #   1 total cpu time :    20.4 secs   av.it.:   4.9
      thresh= 1.000E-02 alpha_mix =  0.700 |ddv_scf|^2 =  9.424E-07

      iter #   2 total cpu time :    20.7 secs   av.it.:   9.5
      thresh= 9.708E-05 alpha_mix =  0.700 |ddv_scf|^2 =  7.495E-08

      iter #   3 total cpu time :    21.0 secs   av.it.:   9.3
      thresh= 2.738E-05 alpha_mix =  0.700 |ddv_scf|^2 =  4.499E-09

      iter #   4 total cpu time :    21.5 secs   av.it.:   8.5
      thresh= 6.707E-06 alpha_mix =  0.700 |ddv_scf|^2 =  6.567E-12

      iter #   5 total cpu time :    21.8 secs   av.it.:   8.9
      thresh= 2.563E-07 alpha_mix =  0.700 |ddv_scf|^2 =  2.576E-14

     End of self-consistent calculation

     Convergence has been achieved 

     Number of q in the star =    4
     List of q in the star:
          1   0.500000000  -0.500000000   0.500000000
          2   0.500000000   0.500000000   0.500000000
          3  -0.500000000   0.500000000   0.500000000
          4   0.500000000   0.500000000  -0.500000000

     Diagonalizing the dynamical matrix

     q = (    0.500000000  -0.500000000   0.500000000 ) 

 **************************************************************************
     freq (    1) =       5.117001 [THz] =     170.684773 [cm-1]
     freq (    2) =       5.117001 [THz] =     170.684773 [cm-1]
     freq (    3) =      11.869621 [THz] =     395.927928 [cm-1]
     freq (    4) =      12.177623 [THz] =     406.201775 [cm-1]
     freq (    5) =      14.671937 [THz] =     489.403146 [cm-1]
     freq (    6) =      14.671937 [THz] =     489.403146 [cm-1]
 **************************************************************************

     Calculation of q =    0.0000000   0.5000000   0.0000000

   Info: using nr1, nr2, nr3 values from input

   Info: using nr1, nr2, nr3 values from input

     Parallelization info
     --------------------
     sticks:   dense  smooth     PW     G-vecs:    dense   smooth      PW
     Min          66      66     27                  722      722     181
     Max          67      67     28                  724      724     182
     Sum         265     265    109                 2891     2891     725



     bravais-lattice index     =            2
     lattice parameter (alat)  =      10.4100  a.u.
     unit-cell volume          =     282.0280 (a.u.)^3
     number of atoms/cell      =            2
     number of atomic types    =            1
     number of electrons       =         8.00
     number of Kohn-Sham states=            4
     kinetic-energy cutoff     =      18.0000  Ry
     charge density cutoff     =      72.0000  Ry
     Exchange-correlation      = SLA  PW   PBE  PBE ( 1  4  3  4 0 0)

     celldm(1)=  10.410000  celldm(2)=   0.000000  celldm(3)=   0.000000
     celldm(4)=   0.000000  celldm(5)=   0.000000  celldm(6)=   0.000000

     crystal axes: (cart. coord. in units of alat)
               a(1) = (  -0.500000   0.000000   0.500000 )  
               a(2) = (   0.000000   0.500000   0.500000 )  
               a(3) = (  -0.500000   0.500000   0.000000 )  

     reciprocal axes: (cart. coord. in units 2 pi/alat)
               b(1) = ( -1.000000 -1.000000  1.000000 )  
               b(2) = (  1.000000  1.000000  1.000000 )  
               b(3) = ( -1.000000  1.000000 -1.000000 )  


     PseudoPot. # 1 for Si read from file:
     /home/max/quantum_espresso/qe-6.1/pseudo/si_pbe_v1.uspp.F.UPF.txt
     MD5 check sum: a056efeee980c13900f22a371efd63c1
     Pseudo is Ultrasoft + core correction, Zval =  4.0
     Generated by new atomic code, or converted to UPF format
     Using radial grid of  899 points,  6 beta functions with: 
                l(1) =   0
                l(2) =   0
                l(3) =   1
                l(4) =   1
                l(5) =   2
                l(6) =   2
     Q(r) pseudized with  8 coefficients,  rinner =    0.900   0.900   0.900
                                                       0.900   0.900

     atomic species   valence    mass     pseudopotential
        Si             4.00    28.08600     Si( 1.00)

     48 Sym. Ops., with inversion, found



   Cartesian axes

     site n.     atom                  positions (alat units)
         1           Si  tau(   1) = (   0.0000000   0.0000000   0.0000000  )
         2           Si  tau(   2) = (   0.2500000   0.2500000   0.2500000  )

     number of k points=    80
                       cart. coord. in units 2pi/alat
        k(    1) = (  -0.1250000   0.1250000   0.1250000), wk =   0.0312500
        k(    2) = (  -0.1250000   0.6250000   0.1250000), wk =   0.0000000
        k(    3) = (  -0.3750000   0.3750000  -0.1250000), wk =   0.0625000
        k(    4) = (  -0.3750000   0.8750000  -0.1250000), wk =   0.0000000
        k(    5) = (   0.3750000  -0.3750000   0.6250000), wk =   0.0625000
        k(    6) = (   0.3750000   0.1250000   0.6250000), wk =   0.0000000
        k(    7) = (   0.1250000  -0.1250000   0.3750000), wk =   0.0625000
        k(    8) = (   0.1250000   0.3750000   0.3750000), wk =   0.0000000
        k(    9) = (  -0.1250000   0.6250000   0.1250000), wk =   0.0312500
        k(   10) = (  -0.1250000   1.1250000   0.1250000), wk =   0.0000000
        k(   11) = (   0.6250000  -0.1250000   0.8750000), wk =   0.0625000
        k(   12) = (   0.6250000   0.3750000   0.8750000), wk =   0.0000000
        k(   13) = (   0.3750000   0.1250000   0.6250000), wk =   0.0625000
        k(   14) = (   0.3750000   0.6250000   0.6250000), wk =   0.0000000
        k(   15) = (  -0.1250000  -0.8750000   0.1250000), wk =   0.0312500
        k(   16) = (  -0.1250000  -0.3750000   0.1250000), wk =   0.0000000
        k(   17) = (  -0.3750000   0.3750000   0.3750000), wk =   0.0312500
        k(   18) = (  -0.3750000   0.8750000   0.3750000), wk =   0.0000000
        k(   19) = (   0.3750000  -0.3750000   1.1250000), wk =   0.0625000
        k(   20) = (   0.3750000   0.1250000   1.1250000), wk =   0.0000000
        k(   21) = (  -0.1250000  -0.1250000   0.1250000), wk =   0.0312500
        k(   22) = (  -0.1250000   0.3750000   0.1250000), wk =   0.0000000
        k(   23) = (   0.1250000  -0.3750000   0.3750000), wk =   0.0625000
        k(   24) = (   0.1250000   0.1250000   0.3750000), wk =   0.0000000
        k(   25) = (   0.3750000  -0.1250000   0.3750000), wk =   0.0312500
        k(   26) = (   0.3750000   0.3750000   0.3750000), wk =   0.0000000
        k(   27) = (   0.3750000   0.1250000   0.3750000), wk =   0.0312500
        k(   28) = (   0.3750000   0.6250000   0.3750000), wk =   0.0000000
        k(   29) = (  -0.6250000   0.3750000  -0.3750000), wk =   0.0625000
        k(   30) = (  -0.6250000   0.8750000  -0.3750000), wk =   0.0000000
        k(   31) = (  -0.3750000   0.6250000  -0.3750000), wk =   0.0312500
        k(   32) = (  -0.3750000   1.1250000  -0.3750000), wk =   0.0000000
        k(   33) = (  -0.3750000  -0.6250000  -0.3750000), wk =   0.0312500
        k(   34) = (  -0.3750000  -0.1250000  -0.3750000), wk =   0.0000000
        k(   35) = (  -0.3750000   0.1250000  -0.1250000), wk =   0.0625000
        k(   36) = (  -0.3750000   0.6250000  -0.1250000), wk =   0.0000000
        k(   37) = (  -0.1250000   0.3750000  -0.1250000), wk =   0.0312500
        k(   38) = (  -0.1250000   0.8750000  -0.1250000), wk =   0.0000000
        k(   39) = (  -0.1250000  -0.3750000  -0.1250000), wk =   0.0312500
        k(   40) = (  -0.1250000   0.1250000  -0.1250000), wk =   0.0000000
        k(   41) = (  -0.1250000  -0.6250000   0.1250000), wk =   0.0312500
        k(   42) = (  -0.1250000  -0.1250000   0.1250000), wk =   0.0000000
        k(   43) = (   0.6250000  -0.1250000  -0.1250000), wk =   0.0625000
        k(   44) = (   0.6250000   0.3750000  -0.1250000), wk =   0.0000000
        k(   45) = (   0.6250000   0.1250000   0.1250000), wk =   0.0625000
        k(   46) = (   0.6250000   0.6250000   0.1250000), wk =   0.0000000
        k(   47) = (  -0.8750000   0.1250000  -0.6250000), wk =   0.0625000
        k(   48) = (  -0.8750000   0.6250000  -0.6250000), wk =   0.0000000
        k(   49) = (  -0.1250000   0.6250000  -0.8750000), wk =   0.0625000
        k(   50) = (  -0.1250000   1.1250000  -0.8750000), wk =   0.0000000
        k(   51) = (  -0.1250000   0.8750000  -0.6250000), wk =   0.0625000
        k(   52) = (  -0.1250000   1.3750000  -0.6250000), wk =   0.0000000
        k(   53) = (  -0.1250000  -0.8750000  -0.6250000), wk =   0.0625000
        k(   54) = (  -0.1250000  -0.3750000  -0.6250000), wk =   0.0000000
        k(   55) = (   0.8750000  -0.6250000   0.1250000), wk =   0.0625000
        k(   56) = (   0.8750000  -0.1250000   0.1250000), wk =   0.0000000
        k(   57) = (  -0.6250000  -0.1250000  -0.3750000), wk =   0.0625000
        k(   58) = (  -0.6250000   0.3750000  -0.3750000), wk =   0.0000000
        k(   59) = (   0.1250000   0.3750000  -0.6250000), wk =   0.0625000
        k(   60) = (   0.1250000   0.8750000  -0.6250000), wk =   0.0000000
        k(   61) = (   0.1250000   0.6250000  -0.3750000), wk =   0.0625000
        k(   62) = (   0.1250000   1.1250000  -0.3750000), wk =   0.0000000
        k(   63) = (   0.1250000  -0.6250000  -0.3750000), wk =   0.0625000
        k(   64) = (   0.1250000  -0.1250000  -0.3750000), wk =   0.0000000
        k(   65) = (   0.6250000  -0.3750000  -0.1250000), wk =   0.0625000
        k(   66) = (   0.6250000   0.1250000  -0.1250000), wk =   0.0000000
        k(   67) = (  -0.1250000   0.8750000   0.1250000), wk =   0.0312500
        k(   68) = (  -0.1250000   1.3750000   0.1250000), wk =   0.0000000
        k(   69) = (  -0.8750000  -0.1250000  -0.1250000), wk =   0.0625000
        k(   70) = (  -0.8750000   0.3750000  -0.1250000), wk =   0.0000000
        k(   71) = (  -0.8750000   0.1250000   0.1250000), wk =   0.0625000
        k(   72) = (  -0.8750000   0.6250000   0.1250000), wk =   0.0000000
        k(   73) = (  -0.3750000  -0.3750000   0.3750000), wk =   0.0312500
        k(   74) = (  -0.3750000   0.1250000   0.3750000), wk =   0.0000000
        k(   75) = (  -1.1250000   0.3750000  -0.3750000), wk =   0.0625000
        k(   76) = (  -1.1250000   0.8750000  -0.3750000), wk =   0.0000000
        k(   77) = (  -0.3750000   1.1250000  -0.3750000), wk =   0.0312500
        k(   78) = (  -0.3750000   1.6250000  -0.3750000), wk =   0.0000000
        k(   79) = (  -0.3750000  -1.1250000  -0.3750000), wk =   0.0312500
        k(   80) = (  -0.3750000  -0.6250000  -0.3750000), wk =   0.0000000

     Dense  grid:     2891 G-vectors     FFT dimensions: (  20,  20,  20)

     Estimated max dynamical RAM per process >       0.33MB

     Estimated total allocated dynamical RAM >       1.34MB

     Check: negative/imaginary core charge=   -0.000006    0.000000

     The potential is recalculated from file :
     ./_ph0/silicon.10.410.save/charge-density.dat

     Starting wfc are    8 atomic wfcs

     Band Structure Calculation
     Davidson diagonalization with overlap

     ethr =  1.25E-10,  avg # of iterations = 11.7

     total cpu time spent up to now is        1.9 secs

     End of band structure calculation

          k =-0.1250 0.1250 0.1250 (   353 PWs)   bands (ev):

    -5.7111   4.1702   5.4818   5.4818

          k =-0.1250 0.6250 0.1250 (   357 PWs)   bands (ev):

    -4.1854   0.8578   3.2033   3.6421

          k =-0.3750 0.3750-0.1250 (   362 PWs)   bands (ev):

    -4.7077   1.2154   3.5386   5.0057

          k =-0.3750 0.8750-0.1250 (   368 PWs)   bands (ev):

    -2.5889  -1.0705   1.8924   2.9387

          k = 0.3750-0.3750 0.6250 (   364 PWs)   bands (ev):

    -3.6017  -0.8092   3.5469   4.2540

          k = 0.3750 0.1250 0.6250 (   365 PWs)   bands (ev):

    -3.7824   0.0170   2.5728   3.9124

          k = 0.1250-0.1250 0.3750 (   358 PWs)   bands (ev):

    -5.1944   2.5623   4.4984   4.5494

          k = 0.1250 0.3750 0.3750 (   362 PWs)   bands (ev):

    -4.7077   1.2154   3.5386   5.0057

          k =-0.1250 0.6250 0.1250 (   357 PWs)   bands (ev):

    -4.1854   0.8578   3.2033   3.6421

          k =-0.1250 1.1250 0.1250 (   364 PWs)   bands (ev):

    -2.7462  -0.9782   2.4832   3.1840

          k = 0.6250-0.1250 0.8750 (   368 PWs)   bands (ev):

    -2.5889  -1.0705   1.8924   2.9387

          k = 0.6250 0.3750 0.8750 (   365 PWs)   bands (ev):

    -3.7824   0.0170   2.5728   3.9124

          k = 0.3750 0.1250 0.6250 (   365 PWs)   bands (ev):

    -3.7824   0.0170   2.5728   3.9124

          k = 0.3750 0.6250 0.6250 (   364 PWs)   bands (ev):

    -3.6017  -0.8092   3.5469   4.2540

          k =-0.1250-0.8750 0.1250 (   364 PWs)   bands (ev):

    -2.7462  -0.9782   2.4832   3.1840

          k =-0.1250-0.3750 0.1250 (   358 PWs)   bands (ev):

    -5.1944   2.5623   4.4984   4.5494

          k =-0.3750 0.3750 0.3750 (   359 PWs)   bands (ev):

    -4.2869  -0.0360   4.7058   4.7058

          k =-0.3750 0.8750 0.3750 (   369 PWs)   bands (ev):

    -3.1161  -0.7537   1.9400   3.9454

          k = 0.3750-0.3750 1.1250 (   369 PWs)   bands (ev):

    -3.1161  -0.7537   1.9400   3.9454

          k = 0.3750 0.1250 1.1250 (   368 PWs)   bands (ev):

    -2.5889  -1.0705   1.8924   2.9387

          k =-0.1250-0.1250 0.1250 (   353 PWs)   bands (ev):

    -5.7111   4.1702   5.4818   5.4818

          k =-0.1250 0.3750 0.1250 (   358 PWs)   bands (ev):

    -5.1944   2.5623   4.4984   4.5494

          k = 0.1250-0.3750 0.3750 (   362 PWs)   bands (ev):

    -4.7077   1.2154   3.5386   5.0057

          k = 0.1250 0.1250 0.3750 (   358 PWs)   bands (ev):

    -5.1944   2.5623   4.4984   4.5494

          k = 0.3750-0.1250 0.3750 (   362 PWs)   bands (ev):

    -4.7077   1.2154   3.5386   5.0057

          k = 0.3750 0.3750 0.3750 (   359 PWs)   bands (ev):

    -4.2869  -0.0360   4.7058   4.7058

          k = 0.3750 0.1250 0.3750 (   362 PWs)   bands (ev):

    -4.7077   1.2154   3.5386   5.0057

          k = 0.3750 0.6250 0.3750 (   364 PWs)   bands (ev):

    -3.6017  -0.8092   3.5469   4.2540

          k =-0.6250 0.3750-0.3750 (   364 PWs)   bands (ev):

    -3.6017  -0.8092   3.5469   4.2540

          k =-0.6250 0.8750-0.3750 (   365 PWs)   bands (ev):

    -3.7824   0.0170   2.5728   3.9124

          k =-0.3750 0.6250-0.3750 (   364 PWs)   bands (ev):

    -3.6017  -0.8092   3.5469   4.2540

          k =-0.3750 1.1250-0.3750 (   369 PWs)   bands (ev):

    -3.1161  -0.7537   1.9400   3.9454

          k =-0.3750-0.6250-0.3750 (   364 PWs)   bands (ev):

    -3.6017  -0.8092   3.5469   4.2540

          k =-0.3750-0.1250-0.3750 (   362 PWs)   bands (ev):

    -4.7077   1.2154   3.5386   5.0057

          k =-0.3750 0.1250-0.1250 (   358 PWs)   bands (ev):

    -5.1944   2.5623   4.4984   4.5494

          k =-0.3750 0.6250-0.1250 (   365 PWs)   bands (ev):

    -3.7824   0.0170   2.5728   3.9124

          k =-0.1250 0.3750-0.1250 (   358 PWs)   bands (ev):

    -5.1944   2.5623   4.4984   4.5494

          k =-0.1250 0.8750-0.1250 (   364 PWs)   bands (ev):

    -2.7462  -0.9782   2.4832   3.1840

          k =-0.1250-0.3750-0.1250 (   358 PWs)   bands (ev):

    -5.1944   2.5623   4.4984   4.5494

          k =-0.1250 0.1250-0.1250 (   353 PWs)   bands (ev):

    -5.7111   4.1702   5.4818   5.4818

          k =-0.1250-0.6250 0.1250 (   357 PWs)   bands (ev):

    -4.1854   0.8578   3.2033   3.6421

          k =-0.1250-0.1250 0.1250 (   353 PWs)   bands (ev):

    -5.7111   4.1702   5.4818   5.4818

          k = 0.6250-0.1250-0.1250 (   357 PWs)   bands (ev):

    -4.1854   0.8578   3.2033   3.6421

          k = 0.6250 0.3750-0.1250 (   365 PWs)   bands (ev):

    -3.7824   0.0170   2.5728   3.9124

          k = 0.6250 0.1250 0.1250 (   357 PWs)   bands (ev):

    -4.1854   0.8578   3.2033   3.6421

          k = 0.6250 0.6250 0.1250 (   369 PWs)   bands (ev):

    -3.1161  -0.7537   1.9400   3.9454

          k =-0.8750 0.1250-0.6250 (   368 PWs)   bands (ev):

    -2.5889  -1.0705   1.8924   2.9387

          k =-0.8750 0.6250-0.6250 (   362 PWs)   bands (ev):

    -4.7077   1.2154   3.5386   5.0057

          k =-0.1250 0.6250-0.8750 (   368 PWs)   bands (ev):

    -2.5889  -1.0705   1.8924   2.9387

          k =-0.1250 1.1250-0.8750 (   364 PWs)   bands (ev):

    -2.7462  -0.9782   2.4832   3.1840

          k =-0.1250 0.8750-0.6250 (   368 PWs)   bands (ev):

    -2.5889  -1.0705   1.8924   2.9387

          k =-0.1250 1.3750-0.6250 (   369 PWs)   bands (ev):

    -3.1161  -0.7537   1.9400   3.9454

          k =-0.1250-0.8750-0.6250 (   368 PWs)   bands (ev):

    -2.5889  -1.0705   1.8924   2.9387

          k =-0.1250-0.3750-0.6250 (   365 PWs)   bands (ev):

    -3.7824   0.0170   2.5728   3.9124

          k = 0.8750-0.6250 0.1250 (   368 PWs)   bands (ev):

    -2.5889  -1.0705   1.8924   2.9387

          k = 0.8750-0.1250 0.1250 (   364 PWs)   bands (ev):

    -2.7462  -0.9782   2.4832   3.1840

          k =-0.6250-0.1250-0.3750 (   365 PWs)   bands (ev):

    -3.7824   0.0170   2.5728   3.9124

          k =-0.6250 0.3750-0.3750 (   364 PWs)   bands (ev):

    -3.6017  -0.8092   3.5469   4.2540

          k = 0.1250 0.3750-0.6250 (   365 PWs)   bands (ev):

    -3.7824   0.0170   2.5728   3.9124

          k = 0.1250 0.8750-0.6250 (   368 PWs)   bands (ev):

    -2.5889  -1.0705   1.8924   2.9387

          k = 0.1250 0.6250-0.3750 (   365 PWs)   bands (ev):

    -3.7824   0.0170   2.5728   3.9124

          k = 0.1250 1.1250-0.3750 (   368 PWs)   bands (ev):

    -2.5889  -1.0705   1.8924   2.9387

          k = 0.1250-0.6250-0.3750 (   365 PWs)   bands (ev):

    -3.7824   0.0170   2.5728   3.9124

          k = 0.1250-0.1250-0.3750 (   358 PWs)   bands (ev):

    -5.1944   2.5623   4.4984   4.5494

          k = 0.6250-0.3750-0.1250 (   365 PWs)   bands (ev):

    -3.7824   0.0170   2.5728   3.9124

          k = 0.6250 0.1250-0.1250 (   357 PWs)   bands (ev):

    -4.1854   0.8578   3.2033   3.6421

          k =-0.1250 0.8750 0.1250 (   364 PWs)   bands (ev):

    -2.7462  -0.9782   2.4832   3.1840

          k =-0.1250 1.3750 0.1250 (   357 PWs)   bands (ev):

    -4.1854   0.8578   3.2033   3.6421

          k =-0.8750-0.1250-0.1250 (   364 PWs)   bands (ev):

    -2.7462  -0.9782   2.4832   3.1840

          k =-0.8750 0.3750-0.1250 (   368 PWs)   bands (ev):

    -2.5889  -1.0705   1.8924   2.9387

          k =-0.8750 0.1250 0.1250 (   364 PWs)   bands (ev):

    -2.7462  -0.9782   2.4832   3.1840

          k =-0.8750 0.6250 0.1250 (   368 PWs)   bands (ev):

    -2.5889  -1.0705   1.8924   2.9387

          k =-0.3750-0.3750 0.3750 (   359 PWs)   bands (ev):

    -4.2869  -0.0360   4.7058   4.7058

          k =-0.3750 0.1250 0.3750 (   362 PWs)   bands (ev):

    -4.7077   1.2154   3.5386   5.0057

          k =-1.1250 0.3750-0.3750 (   369 PWs)   bands (ev):

    -3.1161  -0.7537   1.9400   3.9454

          k =-1.1250 0.8750-0.3750 (   357 PWs)   bands (ev):

    -4.1854   0.8578   3.2033   3.6421

          k =-0.3750 1.1250-0.3750 (   369 PWs)   bands (ev):

    -3.1161  -0.7537   1.9400   3.9454

          k =-0.3750 1.6250-0.3750 (   359 PWs)   bands (ev):

    -4.2869  -0.0360   4.7058   4.7058

          k =-0.3750-1.1250-0.3750 (   369 PWs)   bands (ev):

    -3.1161  -0.7537   1.9400   3.9454

          k =-0.3750-0.6250-0.3750 (   364 PWs)   bands (ev):

    -3.6017  -0.8092   3.5469   4.2540

     highest occupied level (ev):     5.4818

     Writing output data file silicon.10.410.save

                                                                                

     bravais-lattice index     =            2
     lattice parameter (alat)  =      10.4100  a.u.
     unit-cell volume          =     282.0280 (a.u.)^3
     number of atoms/cell      =            2
     number of atomic types    =            1
     kinetic-energy cut-off    =      18.0000  Ry
     charge density cut-off    =      72.0000  Ry
     convergence threshold     =      1.0E-12
     beta                      =       0.7000
     number of iterations used =            4
     Exchange-correlation      = SLA  PW   PBE  PBE ( 1  4  3  4 0 0)


     celldm(1)=   10.41000  celldm(2)=    0.00000  celldm(3)=    0.00000
     celldm(4)=    0.00000  celldm(5)=    0.00000  celldm(6)=    0.00000

     crystal axes: (cart. coord. in units of alat)
               a(1) = ( -0.5000  0.0000  0.5000 )  
               a(2) = (  0.0000  0.5000  0.5000 )  
               a(3) = ( -0.5000  0.5000  0.0000 )  

     reciprocal axes: (cart. coord. in units 2 pi/alat)
               b(1) = ( -1.0000 -1.0000  1.0000 )  
               b(2) = (  1.0000  1.0000  1.0000 )  
               b(3) = ( -1.0000  1.0000 -1.0000 )  


     Atoms inside the unit cell: 

     Cartesian axes

     site n.  atom      mass           positions (alat units)
        1     Si  28.0860   tau(    1) = (    0.00000    0.00000    0.00000  )
        2     Si  28.0860   tau(    2) = (    0.25000    0.25000    0.25000  )

     Computing dynamical matrix for 
                    q = (   0.0000000   0.5000000   0.0000000 )

      8 Sym.Ops. (no q -> -q+G )


     G cutoff =  197.6397  (    722 G-vectors)     FFT grid: ( 20, 20, 20)
     number of k points=    80

     PseudoPot. # 1 for Si read from file:
     /home/max/quantum_espresso/qe-6.1/pseudo/si_pbe_v1.uspp.F.UPF.txt
     MD5 check sum: a056efeee980c13900f22a371efd63c1
     Pseudo is Ultrasoft + core correction, Zval =  4.0
     Generated by new atomic code, or converted to UPF format
     Using radial grid of  899 points,  6 beta functions with: 
                l(1) =   0
                l(2) =   0
                l(3) =   1
                l(4) =   1
                l(5) =   2
                l(6) =   2
     Q(r) pseudized with  8 coefficients,  rinner =    0.900   0.900   0.900
                                                       0.900   0.900

     Mode symmetry, C_4v (4mm)  point group:


     Atomic displacements:
     There are   4 irreducible representations

     Representation     1      1 modes -A_1  G_1 D_1  To be done

     Representation     2      1 modes -B_2  G_4 D_2'  To be done

     Representation     3      2 modes -E    G_5 D_5  To be done

     Representation     4      2 modes -E    G_5 D_5  To be done



     Alpha used in Ewald sum =   0.7000
     PHONON       :    21.29s CPU        22.66s WALL



     Representation #  1 mode #   1

     Self-consistent Calculation

      iter #   1 total cpu time :    22.8 secs   av.it.:   5.8
      thresh= 1.000E-02 alpha_mix =  0.700 |ddv_scf|^2 =  2.917E-03

      iter #   2 total cpu time :    23.0 secs   av.it.:   7.6
      thresh= 5.401E-03 alpha_mix =  0.700 |ddv_scf|^2 =  3.882E-02

      iter #   3 total cpu time :    23.2 secs   av.it.:   6.7
      thresh= 1.000E-02 alpha_mix =  0.700 |ddv_scf|^2 =  1.469E-07

      iter #   4 total cpu time :    23.5 secs   av.it.:   8.1
      thresh= 3.833E-05 alpha_mix =  0.700 |ddv_scf|^2 =  1.649E-08

      iter #   5 total cpu time :    23.7 secs   av.it.:   7.8
      thresh= 1.284E-05 alpha_mix =  0.700 |ddv_scf|^2 =  6.771E-10

      iter #   6 total cpu time :    23.9 secs   av.it.:   8.0
      thresh= 2.602E-06 alpha_mix =  0.700 |ddv_scf|^2 =  2.680E-12

      iter #   7 total cpu time :    24.0 secs   av.it.:   8.0
      thresh= 1.637E-07 alpha_mix =  0.700 |ddv_scf|^2 =  5.152E-13

     End of self-consistent calculation

     Convergence has been achieved 


     Representation #  2 mode #   2

     Self-consistent Calculation

      iter #   1 total cpu time :    24.2 secs   av.it.:   4.9
      thresh= 1.000E-02 alpha_mix =  0.700 |ddv_scf|^2 =  5.133E-06

      iter #   2 total cpu time :    24.4 secs   av.it.:   8.7
      thresh= 2.266E-04 alpha_mix =  0.700 |ddv_scf|^2 =  1.348E-06

      iter #   3 total cpu time :    24.6 secs   av.it.:   8.6
      thresh= 1.161E-04 alpha_mix =  0.700 |ddv_scf|^2 =  3.189E-08

      iter #   4 total cpu time :    24.8 secs   av.it.:   8.2
      thresh= 1.786E-05 alpha_mix =  0.700 |ddv_scf|^2 =  7.770E-10

      iter #   5 total cpu time :    24.9 secs   av.it.:   8.6
      thresh= 2.787E-06 alpha_mix =  0.700 |ddv_scf|^2 =  8.118E-12

      iter #   6 total cpu time :    25.1 secs   av.it.:   7.8
      thresh= 2.849E-07 alpha_mix =  0.700 |ddv_scf|^2 =  9.684E-14

     End of self-consistent calculation

     Convergence has been achieved 


     Representation #  3 modes #   3  4

     Self-consistent Calculation

      iter #   1 total cpu time :    25.5 secs   av.it.:   5.0
      thresh= 1.000E-02 alpha_mix =  0.700 |ddv_scf|^2 =  9.393E-07

      iter #   2 total cpu time :    25.9 secs   av.it.:   9.8
      thresh= 9.692E-05 alpha_mix =  0.700 |ddv_scf|^2 =  1.192E-07

      iter #   3 total cpu time :    26.3 secs   av.it.:   9.5
      thresh= 3.453E-05 alpha_mix =  0.700 |ddv_scf|^2 =  4.967E-09

      iter #   4 total cpu time :    26.7 secs   av.it.:   8.9
      thresh= 7.048E-06 alpha_mix =  0.700 |ddv_scf|^2 =  8.882E-12

      iter #   5 total cpu time :    27.1 secs   av.it.:   9.1
      thresh= 2.980E-07 alpha_mix =  0.700 |ddv_scf|^2 =  3.029E-13

     End of self-consistent calculation

     Convergence has been achieved 


     Representation #  4 modes #   5  6

     Self-consistent Calculation

      iter #   1 total cpu time :    27.6 secs   av.it.:   5.0
      thresh= 1.000E-02 alpha_mix =  0.700 |ddv_scf|^2 =  9.438E-07

      iter #   2 total cpu time :    28.0 secs   av.it.:   9.8
      thresh= 9.715E-05 alpha_mix =  0.700 |ddv_scf|^2 =  1.198E-07

      iter #   3 total cpu time :    28.4 secs   av.it.:   9.5
      thresh= 3.461E-05 alpha_mix =  0.700 |ddv_scf|^2 =  7.421E-09

      iter #   4 total cpu time :    28.7 secs   av.it.:   8.9
      thresh= 8.615E-06 alpha_mix =  0.700 |ddv_scf|^2 =  1.555E-11

      iter #   5 total cpu time :    29.1 secs   av.it.:   9.2
      thresh= 3.944E-07 alpha_mix =  0.700 |ddv_scf|^2 =  4.610E-14

     End of self-consistent calculation

     Convergence has been achieved 

     Number of q in the star =    6
     List of q in the star:
          1   0.000000000   0.500000000   0.000000000
          2   0.000000000  -0.500000000   0.000000000
          3   0.500000000   0.000000000   0.000000000
          4   0.000000000   0.000000000   0.500000000
          5   0.000000000   0.000000000  -0.500000000
          6  -0.500000000   0.000000000   0.000000000

     Diagonalizing the dynamical matrix

     q = (    0.000000000   0.500000000   0.000000000 ) 

 **************************************************************************
     freq (    1) =       4.402988 [THz] =     146.867879 [cm-1]
     freq (    2) =       4.402988 [THz] =     146.867879 [cm-1]
     freq (    3) =       6.985707 [THz] =     233.018096 [cm-1]
     freq (    4) =      14.178984 [THz] =     472.959981 [cm-1]
     freq (    5) =      14.178984 [THz] =     472.959981 [cm-1]
     freq (    6) =      14.892492 [THz] =     496.760069 [cm-1]
 **************************************************************************

     Mode symmetry, C_4v (4mm)  point group:

     freq (  1 -  2) =        146.9  [cm-1]   --> E    G_5 D_5       
     freq (  3 -  3) =        233.0  [cm-1]   --> A_1  G_1 D_1       
     freq (  4 -  5) =        473.0  [cm-1]   --> E    G_5 D_5       
     freq (  6 -  6) =        496.8  [cm-1]   --> B_2  G_4 D_2'      

     Calculation of q =    0.7500000  -0.2500000   0.7500000

   Info: using nr1, nr2, nr3 values from input

   Info: using nr1, nr2, nr3 values from input

     Parallelization info
     --------------------
     sticks:   dense  smooth     PW     G-vecs:    dense   smooth      PW
     Min          65      65     30                  722      722     216
     Max          67      67     31                  723      723     218
     Sum         265     265    121                 2891     2891     869



     bravais-lattice index     =            2
     lattice parameter (alat)  =      10.4100  a.u.
     unit-cell volume          =     282.0280 (a.u.)^3
     number of atoms/cell      =            2
     number of atomic types    =            1
     number of electrons       =         8.00
     number of Kohn-Sham states=            4
     kinetic-energy cutoff     =      18.0000  Ry
     charge density cutoff     =      72.0000  Ry
     Exchange-correlation      = SLA  PW   PBE  PBE ( 1  4  3  4 0 0)

     celldm(1)=  10.410000  celldm(2)=   0.000000  celldm(3)=   0.000000
     celldm(4)=   0.000000  celldm(5)=   0.000000  celldm(6)=   0.000000

     crystal axes: (cart. coord. in units of alat)
               a(1) = (  -0.500000   0.000000   0.500000 )  
               a(2) = (   0.000000   0.500000   0.500000 )  
               a(3) = (  -0.500000   0.500000   0.000000 )  

     reciprocal axes: (cart. coord. in units 2 pi/alat)
               b(1) = ( -1.000000 -1.000000  1.000000 )  
               b(2) = (  1.000000  1.000000  1.000000 )  
               b(3) = ( -1.000000  1.000000 -1.000000 )  


     PseudoPot. # 1 for Si read from file:
     /home/max/quantum_espresso/qe-6.1/pseudo/si_pbe_v1.uspp.F.UPF.txt
     MD5 check sum: a056efeee980c13900f22a371efd63c1
     Pseudo is Ultrasoft + core correction, Zval =  4.0
     Generated by new atomic code, or converted to UPF format
     Using radial grid of  899 points,  6 beta functions with: 
                l(1) =   0
                l(2) =   0
                l(3) =   1
                l(4) =   1
                l(5) =   2
                l(6) =   2
     Q(r) pseudized with  8 coefficients,  rinner =    0.900   0.900   0.900
                                                       0.900   0.900

     atomic species   valence    mass     pseudopotential
        Si             4.00    28.08600     Si( 1.00)

     48 Sym. Ops., with inversion, found



   Cartesian axes

     site n.     atom                  positions (alat units)
         1           Si  tau(   1) = (   0.0000000   0.0000000   0.0000000  )
         2           Si  tau(   2) = (   0.2500000   0.2500000   0.2500000  )

     number of k points=   288

     Number of k-points >= 100: set verbosity='high' to print them.

     Dense  grid:     2891 G-vectors     FFT dimensions: (  20,  20,  20)

     Estimated max dynamical RAM per process >       0.33MB

     Estimated total allocated dynamical RAM >       1.34MB

     Check: negative/imaginary core charge=   -0.000006    0.000000

     The potential is recalculated from file :
     ./_ph0/silicon.10.410.save/charge-density.dat

     Starting wfc are    8 atomic wfcs

     Band Structure Calculation
     Davidson diagonalization with overlap

     ethr =  1.25E-10,  avg # of iterations = 11.6

     total cpu time spent up to now is        3.9 secs

     End of band structure calculation

     Number of k-points >= 100: set verbosity='high' to print the bands.

     highest occupied level (ev):     5.4818

     Writing output data file silicon.10.410.save

                                                                                

     bravais-lattice index     =            2
     lattice parameter (alat)  =      10.4100  a.u.
     unit-cell volume          =     282.0280 (a.u.)^3
     number of atoms/cell      =            2
     number of atomic types    =            1
     kinetic-energy cut-off    =      18.0000  Ry
     charge density cut-off    =      72.0000  Ry
     convergence threshold     =      1.0E-12
     beta                      =       0.7000
     number of iterations used =            4
     Exchange-correlation      = SLA  PW   PBE  PBE ( 1  4  3  4 0 0)


     celldm(1)=   10.41000  celldm(2)=    0.00000  celldm(3)=    0.00000
     celldm(4)=    0.00000  celldm(5)=    0.00000  celldm(6)=    0.00000

     crystal axes: (cart. coord. in units of alat)
               a(1) = ( -0.5000  0.0000  0.5000 )  
               a(2) = (  0.0000  0.5000  0.5000 )  
               a(3) = ( -0.5000  0.5000  0.0000 )  

     reciprocal axes: (cart. coord. in units 2 pi/alat)
               b(1) = ( -1.0000 -1.0000  1.0000 )  
               b(2) = (  1.0000  1.0000  1.0000 )  
               b(3) = ( -1.0000  1.0000 -1.0000 )  


     Atoms inside the unit cell: 

     Cartesian axes

     site n.  atom      mass           positions (alat units)
        1     Si  28.0860   tau(    1) = (    0.00000    0.00000    0.00000  )
        2     Si  28.0860   tau(    2) = (    0.25000    0.25000    0.25000  )

     Computing dynamical matrix for 
                    q = (   0.7500000  -0.2500000   0.7500000 )

      2 Sym.Ops. (no q -> -q+G )


     G cutoff =  197.6397  (    723 G-vectors)     FFT grid: ( 20, 20, 20)
     number of k points=   288

     PseudoPot. # 1 for Si read from file:
     /home/max/quantum_espresso/qe-6.1/pseudo/si_pbe_v1.uspp.F.UPF.txt
     MD5 check sum: a056efeee980c13900f22a371efd63c1
     Pseudo is Ultrasoft + core correction, Zval =  4.0
     Generated by new atomic code, or converted to UPF format
     Using radial grid of  899 points,  6 beta functions with: 
                l(1) =   0
                l(2) =   0
                l(3) =   1
                l(4) =   1
                l(5) =   2
                l(6) =   2
     Q(r) pseudized with  8 coefficients,  rinner =    0.900   0.900   0.900
                                                       0.900   0.900

     Mode symmetry, C_s (m)     point group:


     Atomic displacements:
     There are   6 irreducible representations

     Representation     1      1 modes -A'  To be done

     Representation     2      1 modes -A'  To be done

     Representation     3      1 modes -A'  To be done

     Representation     4      1 modes -A'  To be done

     Representation     5      1 modes -A''  To be done

     Representation     6      1 modes -A''  To be done



     Alpha used in Ewald sum =   0.7000
     PHONON       :    30.01s CPU        31.90s WALL



     Representation #  1 mode #   1

     Self-consistent Calculation

      iter #   1 total cpu time :    32.4 secs   av.it.:   5.3
      thresh= 1.000E-02 alpha_mix =  0.700 |ddv_scf|^2 =  6.026E-05

      iter #   2 total cpu time :    33.1 secs   av.it.:   8.9
      thresh= 7.763E-04 alpha_mix =  0.700 |ddv_scf|^2 =  1.603E-04

      iter #   3 total cpu time :    33.8 secs   av.it.:   7.6
      thresh= 1.266E-03 alpha_mix =  0.700 |ddv_scf|^2 =  1.128E-06

      iter #   4 total cpu time :    34.4 secs   av.it.:   8.4
      thresh= 1.062E-04 alpha_mix =  0.700 |ddv_scf|^2 =  5.817E-08

      iter #   5 total cpu time :    35.1 secs   av.it.:   8.3
      thresh= 2.412E-05 alpha_mix =  0.700 |ddv_scf|^2 =  7.320E-09

      iter #   6 total cpu time :    35.9 secs   av.it.:   8.5
      thresh= 8.556E-06 alpha_mix =  0.700 |ddv_scf|^2 =  9.711E-11

      iter #   7 total cpu time :    36.5 secs   av.it.:   8.7
      thresh= 9.854E-07 alpha_mix =  0.700 |ddv_scf|^2 =  3.355E-12

      iter #   8 total cpu time :    37.2 secs   av.it.:   8.6
      thresh= 1.832E-07 alpha_mix =  0.700 |ddv_scf|^2 =  2.292E-13

     End of self-consistent calculation

     Convergence has been achieved 


     Representation #  2 mode #   2

     Self-consistent Calculation

      iter #   1 total cpu time :    37.9 secs   av.it.:   5.4
      thresh= 1.000E-02 alpha_mix =  0.700 |ddv_scf|^2 =  1.073E-04

      iter #   2 total cpu time :    38.5 secs   av.it.:   8.7
      thresh= 1.036E-03 alpha_mix =  0.700 |ddv_scf|^2 =  3.086E-04

      iter #   3 total cpu time :    39.1 secs   av.it.:   7.4
      thresh= 1.757E-03 alpha_mix =  0.700 |ddv_scf|^2 =  8.067E-07

      iter #   4 total cpu time :    39.9 secs   av.it.:   8.5
      thresh= 8.982E-05 alpha_mix =  0.700 |ddv_scf|^2 =  5.639E-08

      iter #   5 total cpu time :    40.6 secs   av.it.:   8.3
      thresh= 2.375E-05 alpha_mix =  0.700 |ddv_scf|^2 =  1.070E-08

      iter #   6 total cpu time :    41.2 secs   av.it.:   8.5
      thresh= 1.034E-05 alpha_mix =  0.700 |ddv_scf|^2 =  9.552E-11

      iter #   7 total cpu time :    42.0 secs   av.it.:   8.7
      thresh= 9.773E-07 alpha_mix =  0.700 |ddv_scf|^2 =  2.993E-12

      iter #   8 total cpu time :    42.7 secs   av.it.:   8.6
      thresh= 1.730E-07 alpha_mix =  0.700 |ddv_scf|^2 =  8.022E-13

     End of self-consistent calculation

     Convergence has been achieved 


     Representation #  3 mode #   3

     Self-consistent Calculation

      iter #   1 total cpu time :    43.2 secs   av.it.:   5.3
      thresh= 1.000E-02 alpha_mix =  0.700 |ddv_scf|^2 =  8.419E-05

      iter #   2 total cpu time :    44.0 secs   av.it.:   8.8
      thresh= 9.175E-04 alpha_mix =  0.700 |ddv_scf|^2 =  2.258E-04

      iter #   3 total cpu time :    44.6 secs   av.it.:   7.4
      thresh= 1.503E-03 alpha_mix =  0.700 |ddv_scf|^2 =  1.374E-06

      iter #   4 total cpu time :    45.2 secs   av.it.:   8.2
      thresh= 1.172E-04 alpha_mix =  0.700 |ddv_scf|^2 =  5.791E-08

      iter #   5 total cpu time :    46.1 secs   av.it.:   8.4
      thresh= 2.406E-05 alpha_mix =  0.700 |ddv_scf|^2 =  1.104E-08

      iter #   6 total cpu time :    46.7 secs   av.it.:   8.5
      thresh= 1.051E-05 alpha_mix =  0.700 |ddv_scf|^2 =  5.447E-11

      iter #   7 total cpu time :    47.4 secs   av.it.:   8.7
      thresh= 7.380E-07 alpha_mix =  0.700 |ddv_scf|^2 =  2.138E-12

      iter #   8 total cpu time :    48.2 secs   av.it.:   8.8
      thresh= 1.462E-07 alpha_mix =  0.700 |ddv_scf|^2 =  5.416E-13

     End of self-consistent calculation

     Convergence has been achieved 


     Representation #  4 mode #   4

     Self-consistent Calculation

      iter #   1 total cpu time :    48.7 secs   av.it.:   5.2
      thresh= 1.000E-02 alpha_mix =  0.700 |ddv_scf|^2 =  3.714E-05

      iter #   2 total cpu time :    49.4 secs   av.it.:   8.9
[...]
        k(   59) = (  -0.8750000   0.1250000  -0.1250000), wk =   0.0625000
        k(   60) = (  -1.3750000  -0.8750000  -0.1250000), wk =   0.0000000
        k(   61) = (  -1.1250000   0.3750000  -0.3750000), wk =   0.0625000
        k(   62) = (  -1.6250000  -0.6250000  -0.3750000), wk =   0.0000000
        k(   63) = (  -0.3750000   0.3750000   1.1250000), wk =   0.0625000
        k(   64) = (  -0.8750000  -0.6250000   1.1250000), wk =   0.0000000

     Dense  grid:     2891 G-vectors     FFT dimensions: (  20,  20,  20)

     Estimated max dynamical RAM per process >       0.33MB

     Estimated total allocated dynamical RAM >       1.34MB

     Check: negative/imaginary core charge=   -0.000006    0.000000

     The potential is recalculated from file :
     ./_ph0/silicon.10.410.save/charge-density.dat

     Starting wfc are    8 atomic wfcs

     Band Structure Calculation
     Davidson diagonalization with overlap

     ethr =  1.25E-10,  avg # of iterations = 11.6

     total cpu time spent up to now is        6.1 secs

     End of band structure calculation

          k =-0.1250 0.1250 0.1250 (   353 PWs)   bands (ev):

    -5.7111   4.1702   5.4818   5.4818

          k =-0.6250-0.8750 0.1250 (   368 PWs)   bands (ev):

    -2.5889  -1.0705   1.8924   2.9387

          k =-0.3750 0.3750-0.1250 (   362 PWs)   bands (ev):

    -4.7077   1.2154   3.5386   5.0057

          k =-0.8750-0.6250-0.1250 (   368 PWs)   bands (ev):

    -2.5889  -1.0705   1.8924   2.9387

          k = 0.3750-0.3750 0.6250 (   364 PWs)   bands (ev):

    -3.6017  -0.8092   3.5469   4.2540

          k =-0.1250-1.3750 0.6250 (   369 PWs)   bands (ev):

    -3.1161  -0.7537   1.9400   3.9454

          k = 0.1250-0.1250 0.3750 (   358 PWs)   bands (ev):

    -5.1944   2.5623   4.4984   4.5494

          k =-0.3750-1.1250 0.3750 (   369 PWs)   bands (ev):

    -3.1161  -0.7537   1.9400   3.9454

          k =-0.1250 0.6250 0.1250 (   357 PWs)   bands (ev):

    -4.1854   0.8578   3.2033   3.6421

          k =-0.6250-0.3750 0.1250 (   365 PWs)   bands (ev):

    -3.7824   0.0170   2.5728   3.9124

          k = 0.6250-0.1250 0.8750 (   368 PWs)   bands (ev):

    -2.5889  -1.0705   1.8924   2.9387

          k = 0.1250-1.1250 0.8750 (   364 PWs)   bands (ev):

    -2.7462  -0.9782   2.4832   3.1840

          k = 0.3750 0.1250 0.6250 (   365 PWs)   bands (ev):

    -3.7824   0.0170   2.5728   3.9124

          k =-0.1250-0.8750 0.6250 (   368 PWs)   bands (ev):

    -2.5889  -1.0705   1.8924   2.9387

          k =-0.1250-0.8750 0.1250 (   364 PWs)   bands (ev):

    -2.7462  -0.9782   2.4832   3.1840

          k =-0.6250-1.8750 0.1250 (   357 PWs)   bands (ev):

    -4.1854   0.8578   3.2033   3.6421

          k =-0.3750 0.3750 0.3750 (   359 PWs)   bands (ev):

    -4.2869  -0.0360   4.7058   4.7058

          k =-0.8750-0.6250 0.3750 (   365 PWs)   bands (ev):

    -3.7824   0.0170   2.5728   3.9124

          k = 0.3750-0.3750 1.1250 (   369 PWs)   bands (ev):

    -3.1161  -0.7537   1.9400   3.9454

          k =-0.1250-1.3750 1.1250 (   368 PWs)   bands (ev):

    -2.5889  -1.0705   1.8924   2.9387

          k = 0.1250-0.3750 0.3750 (   362 PWs)   bands (ev):

    -4.7077   1.2154   3.5386   5.0057

          k =-0.3750-1.3750 0.3750 (   364 PWs)   bands (ev):

    -3.6017  -0.8092   3.5469   4.2540

          k = 0.3750-0.3750-0.1250 (   362 PWs)   bands (ev):

    -4.7077   1.2154   3.5386   5.0057

          k =-0.1250-1.3750-0.1250 (   357 PWs)   bands (ev):

    -4.1854   0.8578   3.2033   3.6421

          k =-0.6250 0.3750-0.3750 (   364 PWs)   bands (ev):

    -3.6017  -0.8092   3.5469   4.2540

          k =-1.1250-0.6250-0.3750 (   365 PWs)   bands (ev):

    -3.7824   0.0170   2.5728   3.9124

          k =-0.3750 0.3750 0.6250 (   364 PWs)   bands (ev):

    -3.6017  -0.8092   3.5469   4.2540

          k =-0.8750-0.6250 0.6250 (   362 PWs)   bands (ev):

    -4.7077   1.2154   3.5386   5.0057

          k =-0.3750 0.1250-0.1250 (   358 PWs)   bands (ev):

    -5.1944   2.5623   4.4984   4.5494

          k =-0.8750-0.8750-0.1250 (   364 PWs)   bands (ev):

    -2.7462  -0.9782   2.4832   3.1840

          k =-0.1250 0.1250 0.3750 (   358 PWs)   bands (ev):

    -5.1944   2.5623   4.4984   4.5494

          k =-0.6250-0.8750 0.3750 (   365 PWs)   bands (ev):

    -3.7824   0.0170   2.5728   3.9124

          k = 0.1250 0.6250-0.1250 (   357 PWs)   bands (ev):

    -4.1854   0.8578   3.2033   3.6421

          k =-0.3750-0.3750-0.1250 (   362 PWs)   bands (ev):

    -4.7077   1.2154   3.5386   5.0057

          k = 0.6250 0.1250-0.1250 (   357 PWs)   bands (ev):

    -4.1854   0.8578   3.2033   3.6421

          k = 0.1250-0.8750-0.1250 (   364 PWs)   bands (ev):

    -2.7462  -0.9782   2.4832   3.1840

          k =-0.8750 0.1250-0.6250 (   368 PWs)   bands (ev):

    -2.5889  -1.0705   1.8924   2.9387

          k =-1.3750-0.8750-0.6250 (   362 PWs)   bands (ev):

    -4.7077   1.2154   3.5386   5.0057

          k = 0.8750-0.1250 0.6250 (   368 PWs)   bands (ev):

    -2.5889  -1.0705   1.8924   2.9387

          k = 0.3750-1.1250 0.6250 (   365 PWs)   bands (ev):

    -3.7824   0.0170   2.5728   3.9124

          k =-0.6250 0.1250 0.8750 (   368 PWs)   bands (ev):

    -2.5889  -1.0705   1.8924   2.9387

          k =-1.1250-0.8750 0.8750 (   353 PWs)   bands (ev):

    -5.7111   4.1702   5.4818   5.4818

          k =-0.1250 0.8750 0.6250 (   368 PWs)   bands (ev):

    -2.5889  -1.0705   1.8924   2.9387

          k =-0.6250-0.1250 0.6250 (   369 PWs)   bands (ev):

    -3.1161  -0.7537   1.9400   3.9454

          k = 0.1250 0.8750-0.6250 (   368 PWs)   bands (ev):

    -2.5889  -1.0705   1.8924   2.9387

          k =-0.3750-0.1250-0.6250 (   365 PWs)   bands (ev):

    -3.7824   0.0170   2.5728   3.9124

          k =-0.6250-0.1250-0.3750 (   365 PWs)   bands (ev):

    -3.7824   0.0170   2.5728   3.9124

          k =-1.1250-1.1250-0.3750 (   357 PWs)   bands (ev):

    -4.1854   0.8578   3.2033   3.6421

          k = 0.6250 0.1250 0.3750 (   365 PWs)   bands (ev):

    -3.7824   0.0170   2.5728   3.9124

          k = 0.1250-0.8750 0.3750 (   368 PWs)   bands (ev):

    -2.5889  -1.0705   1.8924   2.9387

          k =-0.3750-0.1250 0.6250 (   365 PWs)   bands (ev):

    -3.7824   0.0170   2.5728   3.9124

          k =-0.8750-1.1250 0.6250 (   358 PWs)   bands (ev):

    -5.1944   2.5623   4.4984   4.5494

          k = 0.1250 0.6250 0.3750 (   365 PWs)   bands (ev):

    -3.7824   0.0170   2.5728   3.9124

          k =-0.3750-0.3750 0.3750 (   359 PWs)   bands (ev):

    -4.2869  -0.0360   4.7058   4.7058

          k =-0.1250 0.6250-0.3750 (   365 PWs)   bands (ev):

    -3.7824   0.0170   2.5728   3.9124

          k =-0.6250-0.3750-0.3750 (   364 PWs)   bands (ev):

    -3.6017  -0.8092   3.5469   4.2540

          k = 0.1250-0.8750-0.1250 (   364 PWs)   bands (ev):

    -2.7462  -0.9782   2.4832   3.1840

          k =-0.3750-1.8750-0.1250 (   358 PWs)   bands (ev):

    -5.1944   2.5623   4.4984   4.5494

          k =-0.8750 0.1250-0.1250 (   364 PWs)   bands (ev):

    -2.7462  -0.9782   2.4832   3.1840

          k =-1.3750-0.8750-0.1250 (   368 PWs)   bands (ev):

    -2.5889  -1.0705   1.8924   2.9387

          k =-1.1250 0.3750-0.3750 (   369 PWs)   bands (ev):

    -3.1161  -0.7537   1.9400   3.9454

          k =-1.6250-0.6250-0.3750 (   364 PWs)   bands (ev):

    -3.6017  -0.8092   3.5469   4.2540

          k =-0.3750 0.3750 1.1250 (   369 PWs)   bands (ev):

    -3.1161  -0.7537   1.9400   3.9454

          k =-0.8750-0.6250 1.1250 (   358 PWs)   bands (ev):

    -5.1944   2.5623   4.4984   4.5494

     highest occupied level (ev):     5.4818

     Writing output data file silicon.10.410.save

                                                                                

     bravais-lattice index     =            2
     lattice parameter (alat)  =      10.4100  a.u.
     unit-cell volume          =     282.0280 (a.u.)^3
     number of atoms/cell      =            2
     number of atomic types    =            1
     kinetic-energy cut-off    =      18.0000  Ry
     charge density cut-off    =      72.0000  Ry
     convergence threshold     =      1.0E-12
     beta                      =       0.7000
     number of iterations used =            4
     Exchange-correlation      = SLA  PW   PBE  PBE ( 1  4  3  4 0 0)


     celldm(1)=   10.41000  celldm(2)=    0.00000  celldm(3)=    0.00000
     celldm(4)=    0.00000  celldm(5)=    0.00000  celldm(6)=    0.00000

     crystal axes: (cart. coord. in units of alat)
               a(1) = ( -0.5000  0.0000  0.5000 )  
               a(2) = (  0.0000  0.5000  0.5000 )  
               a(3) = ( -0.5000  0.5000  0.0000 )  

     reciprocal axes: (cart. coord. in units 2 pi/alat)
               b(1) = ( -1.0000 -1.0000  1.0000 )  
               b(2) = (  1.0000  1.0000  1.0000 )  
               b(3) = ( -1.0000  1.0000 -1.0000 )  


     Atoms inside the unit cell: 

     Cartesian axes

     site n.  atom      mass           positions (alat units)
        1     Si  28.0860   tau(    1) = (    0.00000    0.00000    0.00000  )
        2     Si  28.0860   tau(    2) = (    0.25000    0.25000    0.25000  )

     Computing dynamical matrix for 
                    q = (  -0.5000000  -1.0000000   0.0000000 )

      8 Sym.Ops. (no q -> -q+G )


     G cutoff =  197.6397  (    722 G-vectors)     FFT grid: ( 20, 20, 20)
     number of k points=    64

     PseudoPot. # 1 for Si read from file:
     /home/max/quantum_espresso/qe-6.1/pseudo/si_pbe_v1.uspp.F.UPF.txt
     MD5 check sum: a056efeee980c13900f22a371efd63c1
     Pseudo is Ultrasoft + core correction, Zval =  4.0
     Generated by new atomic code, or converted to UPF format
     Using radial grid of  899 points,  6 beta functions with: 
                l(1) =   0
                l(2) =   0
                l(3) =   1
                l(4) =   1
                l(5) =   2
                l(6) =   2
     Q(r) pseudized with  8 coefficients,  rinner =    0.900   0.900   0.900
                                                       0.900   0.900


     Atomic displacements:
     There are   3 irreducible representations

     Representation     1      2 modes -  To be done

     Representation     2      2 modes -  To be done

     Representation     3      2 modes -  To be done



     Alpha used in Ewald sum =   0.7000
     PHONON       :  1m14.56s CPU     1m19.21s WALL



     Representation #  1 modes #   1  2

     Self-consistent Calculation

      iter #   1 total cpu time :    79.6 secs   av.it.:   5.3
      thresh= 1.000E-02 alpha_mix =  0.700 |ddv_scf|^2 =  6.295E-06

      iter #   2 total cpu time :    80.0 secs   av.it.:   9.8
      thresh= 2.509E-04 alpha_mix =  0.700 |ddv_scf|^2 =  3.386E-06

      iter #   3 total cpu time :    80.3 secs   av.it.:   9.2
      thresh= 1.840E-04 alpha_mix =  0.700 |ddv_scf|^2 =  8.568E-09

      iter #   4 total cpu time :    80.6 secs   av.it.:   9.1
      thresh= 9.256E-06 alpha_mix =  0.700 |ddv_scf|^2 =  2.530E-11

      iter #   5 total cpu time :    80.9 secs   av.it.:   9.0
      thresh= 5.030E-07 alpha_mix =  0.700 |ddv_scf|^2 =  6.960E-13

     End of self-consistent calculation

     Convergence has been achieved 


     Representation #  2 modes #   3  4

     Self-consistent Calculation

      iter #   1 total cpu time :    81.1 secs   av.it.:   5.2
      thresh= 1.000E-02 alpha_mix =  0.700 |ddv_scf|^2 =  9.688E-06

      iter #   2 total cpu time :    81.7 secs   av.it.:   9.9
      thresh= 3.112E-04 alpha_mix =  0.700 |ddv_scf|^2 =  1.321E-05

      iter #   3 total cpu time :    82.0 secs   av.it.:   9.1
      thresh= 3.635E-04 alpha_mix =  0.700 |ddv_scf|^2 =  1.024E-08

      iter #   4 total cpu time :    82.3 secs   av.it.:   8.9
      thresh= 1.012E-05 alpha_mix =  0.700 |ddv_scf|^2 =  9.831E-11

      iter #   5 total cpu time :    82.6 secs   av.it.:   9.5
      thresh= 9.915E-07 alpha_mix =  0.700 |ddv_scf|^2 =  1.883E-12

      iter #   6 total cpu time :    82.9 secs   av.it.:   9.1
      thresh= 1.372E-07 alpha_mix =  0.700 |ddv_scf|^2 =  1.634E-14

     End of self-consistent calculation

     Convergence has been achieved 


     Representation #  3 modes #   5  6

     Self-consistent Calculation

      iter #   1 total cpu time :    83.1 secs   av.it.:   5.1
      thresh= 1.000E-02 alpha_mix =  0.700 |ddv_scf|^2 =  2.619E-06

      iter #   2 total cpu time :    83.6 secs   av.it.:   9.7
      thresh= 1.618E-04 alpha_mix =  0.700 |ddv_scf|^2 =  1.429E-06

      iter #   3 total cpu time :    84.0 secs   av.it.:   9.1
      thresh= 1.195E-04 alpha_mix =  0.700 |ddv_scf|^2 =  8.183E-09

      iter #   4 total cpu time :    84.3 secs   av.it.:   8.7
      thresh= 9.046E-06 alpha_mix =  0.700 |ddv_scf|^2 =  4.715E-11

      iter #   5 total cpu time :    84.6 secs   av.it.:   9.1
      thresh= 6.867E-07 alpha_mix =  0.700 |ddv_scf|^2 =  7.281E-13

     End of self-consistent calculation

     Convergence has been achieved 

     Number of q in the star =    6
     List of q in the star:
          1  -0.500000000  -1.000000000   0.000000000
          2   0.000000000   1.000000000   0.500000000
          3   0.000000000  -1.000000000  -0.500000000
          4   0.500000000   1.000000000   0.000000000
          5  -1.000000000  -0.500000000   0.000000000
          6   0.000000000  -0.500000000  -1.000000000

     Diagonalizing the dynamical matrix

     q = (   -0.500000000  -1.000000000   0.000000000 ) 

 **************************************************************************
     freq (    1) =       7.820630 [THz] =     260.868136 [cm-1]
     freq (    2) =       7.820630 [THz] =     260.868136 [cm-1]
     freq (    3) =      11.005454 [THz] =     367.102423 [cm-1]
     freq (    4) =      11.005454 [THz] =     367.102423 [cm-1]
     freq (    5) =      13.706932 [THz] =     457.214054 [cm-1]
     freq (    6) =      13.706932 [THz] =     457.214054 [cm-1]
 **************************************************************************

     init_run     :      0.52s CPU      0.54s WALL (       7 calls)
     electrons    :      4.58s CPU      4.76s WALL (       7 calls)

     Called by init_run:
     wfcinit      :      0.00s CPU      0.00s WALL (       7 calls)
     potinit      :      0.02s CPU      0.02s WALL (       7 calls)

     Called by electrons:
     c_bands      :      4.58s CPU      4.74s WALL (       7 calls)
     v_of_rho     :      0.01s CPU      0.01s WALL (       8 calls)
     newd         :      0.03s CPU      0.03s WALL (       8 calls)

     Called by c_bands:
     init_us_2    :      0.68s CPU      0.72s WALL (   17588 calls)
     cegterg      :      3.85s CPU      3.99s WALL (     796 calls)

     Called by sum_band:

     Called by *egterg:
     h_psi        :     43.58s CPU     46.27s WALL (  152287 calls)
     s_psi        :      5.85s CPU      6.19s WALL (  309294 calls)
     g_psi        :      0.03s CPU      0.03s WALL (    9268 calls)
     cdiaghg      :      0.42s CPU      0.44s WALL (   10064 calls)

     Called by h_psi:
     h_psi:pot    :     43.39s CPU     46.07s WALL (  152287 calls)
     h_psi:calbec :      4.52s CPU      4.82s WALL (  152287 calls)
     vloc_psi     :     35.73s CPU     37.95s WALL (  152287 calls)
     add_vuspsi   :      2.92s CPU      3.08s WALL (  152287 calls)

     General routines
     calbec       :      9.97s CPU     10.70s WALL (  345666 calls)
     fft          :      0.49s CPU      0.52s WALL (    5239 calls)
     ffts         :      0.13s CPU      0.14s WALL (    2748 calls)
     fftw         :     41.37s CPU     43.97s WALL ( 1378904 calls)
     davcio       :      0.33s CPU      0.36s WALL (   79045 calls)

     Parallel routines
     fft_scatter  :      9.57s CPU     10.42s WALL ( 1386891 calls)

     PHONON       :  1m19.47s CPU     1m24.58s WALL

     INITIALIZATION: 
     phq_setup    :      0.06s CPU      0.07s WALL (       8 calls)
     phq_init     :      2.09s CPU      2.19s WALL (       8 calls)

     phq_init     :      2.09s CPU      2.19s WALL (       8 calls)
     set_drhoc    :      0.29s CPU      0.32s WALL (      24 calls)
     init_vloc    :      0.01s CPU      0.01s WALL (       8 calls)
     init_us_1    :      0.48s CPU      0.48s WALL (       8 calls)
     newd         :      0.03s CPU      0.03s WALL (       8 calls)
     dvanqq       :      0.25s CPU      0.25s WALL (       8 calls)
     drho         :      1.10s CPU      1.14s WALL (       8 calls)

     DYNAMICAL MATRIX:
     dynmat0      :      0.49s CPU      0.49s WALL (       8 calls)
     phqscf       :     69.67s CPU     74.37s WALL (       8 calls)
     dynmatrix    :      0.01s CPU      0.02s WALL (       8 calls)

     phqscf       :     69.67s CPU     74.37s WALL (       8 calls)
     solve_linter :     68.99s CPU     73.65s WALL (      32 calls)
     drhodv       :      0.48s CPU      0.50s WALL (      32 calls)

     dynmat0      :      0.49s CPU      0.49s WALL (       8 calls)
     dynmat_us    :      0.27s CPU      0.27s WALL (       8 calls)
     d2ionq       :      0.01s CPU      0.01s WALL (       8 calls)
     dynmatcc     :      0.21s CPU      0.21s WALL (       8 calls)

     dynmat_us    :      0.27s CPU      0.27s WALL (       8 calls)
     addusdynmat  :      0.00s CPU      0.00s WALL (       8 calls)

     phqscf       :     69.67s CPU     74.37s WALL (       8 calls)
     solve_linter :     68.99s CPU     73.65s WALL (      32 calls)

     solve_linter :     68.99s CPU     73.65s WALL (      32 calls)
     dvqpsi_us    :      1.69s CPU      1.84s WALL (    2508 calls)
     ortho        :      1.11s CPU      1.20s WALL (   15550 calls)
     cgsolve      :     54.14s CPU     57.79s WALL (   15550 calls)
     incdrhoscf   :      4.60s CPU      4.88s WALL (   15550 calls)
     addusddens   :      1.16s CPU      1.19s WALL (     228 calls)
     vpsifft      :      3.35s CPU      3.59s WALL (   12922 calls)
     dv_of_drho   :      0.25s CPU      0.26s WALL (     295 calls)
     mix_pot      :      0.07s CPU      0.08s WALL (     201 calls)
     psymdvscf    :      0.79s CPU      0.80s WALL (     196 calls)
     newdq        :      1.28s CPU      1.35s WALL (     201 calls)
     adddvscf     :      0.46s CPU      0.51s WALL (   13042 calls)
     drhodvus     :      0.00s CPU      0.00s WALL (      32 calls)

     dvqpsi_us    :      1.69s CPU      1.84s WALL (    2508 calls)
     dvqpsi_us_on :      0.82s CPU      0.90s WALL (    2508 calls)

     cgsolve      :     54.14s CPU     57.79s WALL (   15550 calls)
     ch_psi       :     52.06s CPU     55.48s WALL (  141427 calls)

     ch_psi       :     52.06s CPU     55.48s WALL (  141427 calls)
     h_psi        :     43.58s CPU     46.27s WALL (  152287 calls)
     last         :      8.57s CPU      9.24s WALL (  141427 calls)

     h_psi        :     43.58s CPU     46.27s WALL (  152287 calls)
     add_vuspsi   :      2.92s CPU      3.08s WALL (  152287 calls)

     incdrhoscf   :      4.60s CPU      4.88s WALL (   15550 calls)
     addusdbec    :      0.63s CPU      0.67s WALL (   17998 calls)

     drhodvus     :      0.00s CPU      0.00s WALL (      32 calls)

      General routines
     calbec       :      9.97s CPU     10.70s WALL (  345666 calls)
     fft          :      0.49s CPU      0.52s WALL (    5239 calls)
     ffts         :      0.13s CPU      0.14s WALL (    2748 calls)
     fftw         :     41.37s CPU     43.97s WALL ( 1378904 calls)
     davcio       :      0.33s CPU      0.36s WALL (   79045 calls)
     write_rec    :      0.20s CPU      0.21s WALL (     233 calls)


     PHONON       :  1m19.47s CPU     1m24.58s WALL


   This run was terminated on:  17:55:52   9Nov2017            

=------------------------------------------------------------------------------=
   JOB DONE.
=------------------------------------------------------------------------------=
