
     Program PHONON v.6.1 (svn rev. 13369) starts on  9Nov2017 at 15:54:59 

     This program is part of the open-source Quantum ESPRESSO suite
     for quantum simulation of materials; please cite
         "P. Giannozzi et al., J. Phys.:Condens. Matter 21 395502 (2009);
          URL http://www.quantum-espresso.org", 
     in publications or presentations arising from this work. More details at
     http://www.quantum-espresso.org/quote

     Parallel version (MPI), running on     4 processors
     R & G space division:  proc/nbgrp/npool/nimage =       4

     Reading data from directory:
     ./silicon.10.3403.save

   Info: using nr1, nr2, nr3 values from input

   Info: using nr1, nr2, nr3 values from input

     IMPORTANT: XC functional enforced from input :
     Exchange-correlation      = SLA  PW   PBE  PBE ( 1  4  3  4 0 0)
     Any further DFT definition will be discarded
     Please, verify this is what you really want


     Parallelization info
     --------------------
     sticks:   dense  smooth     PW     G-vecs:    dense   smooth      PW
     Min          64      64     22                  709      709     140
     Max          67      67     23                  710      710     141
     Sum         265     265     91                 2837     2837     561


     Check: negative/imaginary core charge=   -0.000006    0.000000


     Dynamical matrices for ( 4, 4, 4)  uniform grid of q-points
     (   8q-points):
       N         xq(1)         xq(2)         xq(3) 
       1   0.000000000   0.000000000   0.000000000
       2  -0.250000000   0.250000000  -0.250000000
       3   0.500000000  -0.500000000   0.500000000
       4   0.000000000   0.500000000   0.000000000
       5   0.750000000  -0.250000000   0.750000000
       6   0.500000000   0.000000000   0.500000000
       7   0.000000000  -1.000000000   0.000000000
       8  -0.500000000  -1.000000000   0.000000000

     Calculation of q =    0.0000000   0.0000000   0.0000000

                                                                                

     bravais-lattice index     =            2
     lattice parameter (alat)  =      10.3403  a.u.
     unit-cell volume          =     276.4009 (a.u.)^3
     number of atoms/cell      =            2
     number of atomic types    =            1
     kinetic-energy cut-off    =      18.0000  Ry
     charge density cut-off    =      72.0000  Ry
     convergence threshold     =      1.0E-12
     beta                      =       0.7000
     number of iterations used =            4
     Exchange-correlation      = SLA  PW   PBE  PBE ( 1  4  3  4 0 0)


     celldm(1)=   10.34030  celldm(2)=    0.00000  celldm(3)=    0.00000
     celldm(4)=    0.00000  celldm(5)=    0.00000  celldm(6)=    0.00000

     crystal axes: (cart. coord. in units of alat)
               a(1) = ( -0.5000  0.0000  0.5000 )  
               a(2) = (  0.0000  0.5000  0.5000 )  
               a(3) = ( -0.5000  0.5000  0.0000 )  

     reciprocal axes: (cart. coord. in units 2 pi/alat)
               b(1) = ( -1.0000 -1.0000  1.0000 )  
               b(2) = (  1.0000  1.0000  1.0000 )  
               b(3) = ( -1.0000  1.0000 -1.0000 )  


     Atoms inside the unit cell: 

     Cartesian axes

     site n.  atom      mass           positions (alat units)
        1     Si  28.0860   tau(    1) = (    0.00000    0.00000    0.00000  )
        2     Si  28.0860   tau(    2) = (    0.25000    0.25000    0.25000  )

     Computing dynamical matrix for 
                    q = (   0.0000000   0.0000000   0.0000000 )

     49 Sym.Ops. (with q -> -q+G )


     G cutoff =  195.0020  (    710 G-vectors)     FFT grid: ( 20, 20, 20)
     number of k points=    10

     PseudoPot. # 1 for Si read from file:
     /home/max/quantum_espresso/qe-6.1/pseudo/si_pbe_v1.uspp.F.UPF.txt
     MD5 check sum: a056efeee980c13900f22a371efd63c1
     Pseudo is Ultrasoft + core correction, Zval =  4.0
     Generated by new atomic code, or converted to UPF format
     Using radial grid of  899 points,  6 beta functions with: 
                l(1) =   0
                l(2) =   0
                l(3) =   1
                l(4) =   1
                l(5) =   2
                l(6) =   2
     Q(r) pseudized with  8 coefficients,  rinner =    0.900   0.900   0.900
                                                       0.900   0.900

     Mode symmetry, O_h (m-3m)  point group:


     Electric field:
     Dielectric constant
     Born effective charges in two ways 


     Atomic displacements:
     There are   2 irreducible representations

     Representation     1      3 modes -T_2g G_25' G_5+  To be done

     Representation     2      3 modes -T_1u G_15  G_4-  To be done



     Alpha used in Ewald sum =   0.7000
     PHONON       :     0.39s CPU         0.41s WALL


     Electric Fields Calculation

      iter #   1 total cpu time :     1.1 secs   av.it.:   5.6
      thresh= 1.000E-02 alpha_mix =  0.700 |ddv_scf|^2 =  9.341E-07

      iter #   2 total cpu time :     1.3 secs   av.it.:   9.9
      thresh= 9.665E-05 alpha_mix =  0.700 |ddv_scf|^2 =  5.946E-08

      iter #   3 total cpu time :     1.5 secs   av.it.:   9.8
      thresh= 2.438E-05 alpha_mix =  0.700 |ddv_scf|^2 =  4.673E-09

      iter #   4 total cpu time :     1.6 secs   av.it.:   8.9
      thresh= 6.836E-06 alpha_mix =  0.700 |ddv_scf|^2 =  2.806E-11

      iter #   5 total cpu time :     1.8 secs   av.it.:   9.1
      thresh= 5.297E-07 alpha_mix =  0.700 |ddv_scf|^2 =  1.457E-14

     End of electric fields calculation

          Dielectric constant in cartesian axis 

          (      13.882839692       0.000000000      -0.000000000 )
          (       0.000000000      13.882839692       0.000000000 )
          (      -0.000000000       0.000000000      13.882839692 )

          Effective charges (d Force / dE) in cartesian axis

           atom      1   Si 
      Ex  (       -0.03566        0.00000       -0.00000 )
      Ey  (        0.00000       -0.03566        0.00000 )
      Ez  (       -0.00000       -0.00000       -0.03566 )
           atom      2   Si 
      Ex  (       -0.03566        0.00000       -0.00000 )
      Ey  (        0.00000       -0.03566       -0.00000 )
      Ez  (       -0.00000        0.00000       -0.03566 )


     Representation #  1 modes #   1  2  3

     Self-consistent Calculation

      iter #   1 total cpu time :     2.2 secs   av.it.:   5.0
      thresh= 1.000E-02 alpha_mix =  0.700 |ddv_scf|^2 =  2.232E-07

      iter #   2 total cpu time :     2.4 secs   av.it.:   9.9
      thresh= 4.724E-05 alpha_mix =  0.700 |ddv_scf|^2 =  1.381E-08

      iter #   3 total cpu time :     2.5 secs   av.it.:   9.3
      thresh= 1.175E-05 alpha_mix =  0.700 |ddv_scf|^2 =  8.576E-10

      iter #   4 total cpu time :     2.9 secs   av.it.:   9.0
      thresh= 2.928E-06 alpha_mix =  0.700 |ddv_scf|^2 =  1.895E-12

      iter #   5 total cpu time :     3.2 secs   av.it.:   9.5
      thresh= 1.377E-07 alpha_mix =  0.700 |ddv_scf|^2 =  1.332E-14

     End of self-consistent calculation

     Convergence has been achieved 


     Representation #  2 modes #   4  5  6

     Self-consistent Calculation

      iter #   1 total cpu time :     3.4 secs   av.it.:   5.0
      thresh= 1.000E-02 alpha_mix =  0.700 |ddv_scf|^2 =  1.847E-07

      iter #   2 total cpu time :     3.6 secs   av.it.:   9.6
      thresh= 4.298E-05 alpha_mix =  0.700 |ddv_scf|^2 =  1.497E-08

      iter #   3 total cpu time :     3.8 secs   av.it.:   9.3
      thresh= 1.224E-05 alpha_mix =  0.700 |ddv_scf|^2 =  9.107E-10

      iter #   4 total cpu time :     4.0 secs   av.it.:   9.5
      thresh= 3.018E-06 alpha_mix =  0.700 |ddv_scf|^2 =  5.310E-12

      iter #   5 total cpu time :     4.1 secs   av.it.:   9.1
      thresh= 2.304E-07 alpha_mix =  0.700 |ddv_scf|^2 =  4.651E-15

     End of self-consistent calculation

     Convergence has been achieved 

     Number of q in the star =    1
     List of q in the star:
          1   0.000000000   0.000000000   0.000000000

          Dielectric constant in cartesian axis 

          (      13.882839692       0.000000000      -0.000000000 )
          (       0.000000000      13.882839692       0.000000000 )
          (      -0.000000000       0.000000000      13.882839692 )

          Effective charges (d Force / dE) in cartesian axis

           atom      1   Si 
      Ex  (       -0.03566        0.00000       -0.00000 )
      Ey  (        0.00000       -0.03566        0.00000 )
      Ez  (       -0.00000       -0.00000       -0.03566 )
           atom      2   Si 
      Ex  (       -0.03566        0.00000       -0.00000 )
      Ey  (        0.00000       -0.03566       -0.00000 )
      Ez  (       -0.00000        0.00000       -0.03566 )

          Effective charges (d P / du) in cartesian axis 

           atom      1   Si 
      Px  (       -0.07507        0.00000        0.00000 )
      Py  (       -0.00000       -0.07507        0.00000 )
      Pz  (        0.00000        0.00000       -0.07507 )
           atom      2   Si 
      Px  (       -0.07507        0.00000       -0.00000 )
      Py  (        0.00000       -0.07507       -0.00000 )
      Pz  (       -0.00000       -0.00000       -0.07507 )

     Diagonalizing the dynamical matrix

     q = (    0.000000000   0.000000000   0.000000000 ) 

 **************************************************************************
     freq (    1) =       1.896403 [THz] =      63.257211 [cm-1]
     freq (    2) =       1.896403 [THz] =      63.257211 [cm-1]
     freq (    3) =       1.896403 [THz] =      63.257211 [cm-1]
     freq (    4) =      15.357015 [THz] =     512.254884 [cm-1]
     freq (    5) =      15.357015 [THz] =     512.254884 [cm-1]
     freq (    6) =      15.357015 [THz] =     512.254884 [cm-1]
 **************************************************************************

     Mode symmetry, O_h (m-3m)  point group:

     freq (  1 -  3) =         63.3  [cm-1]   --> T_1u G_15  G_4- I  
     freq (  4 -  6) =        512.3  [cm-1]   --> T_2g G_25' G_5+ R  

     Calculation of q =   -0.2500000   0.2500000  -0.2500000

   Info: using nr1, nr2, nr3 values from input

   Info: using nr1, nr2, nr3 values from input

     Parallelization info
     --------------------
     sticks:   dense  smooth     PW     G-vecs:    dense   smooth      PW
     Min          64      64     24                  709      709     161
     Max          67      67     25                  710      710     162
     Sum         265     265     97                 2837     2837     645



     bravais-lattice index     =            2
     lattice parameter (alat)  =      10.3403  a.u.
     unit-cell volume          =     276.4009 (a.u.)^3
     number of atoms/cell      =            2
     number of atomic types    =            1
     number of electrons       =         8.00
     number of Kohn-Sham states=            4
     kinetic-energy cutoff     =      18.0000  Ry
     charge density cutoff     =      72.0000  Ry
     Exchange-correlation      = SLA  PW   PBE  PBE ( 1  4  3  4 0 0)

     celldm(1)=  10.340300  celldm(2)=   0.000000  celldm(3)=   0.000000
     celldm(4)=   0.000000  celldm(5)=   0.000000  celldm(6)=   0.000000

     crystal axes: (cart. coord. in units of alat)
               a(1) = (  -0.500000   0.000000   0.500000 )  
               a(2) = (   0.000000   0.500000   0.500000 )  
               a(3) = (  -0.500000   0.500000   0.000000 )  

     reciprocal axes: (cart. coord. in units 2 pi/alat)
               b(1) = ( -1.000000 -1.000000  1.000000 )  
               b(2) = (  1.000000  1.000000  1.000000 )  
               b(3) = ( -1.000000  1.000000 -1.000000 )  


     PseudoPot. # 1 for Si read from file:
     /home/max/quantum_espresso/qe-6.1/pseudo/si_pbe_v1.uspp.F.UPF.txt
     MD5 check sum: a056efeee980c13900f22a371efd63c1
     Pseudo is Ultrasoft + core correction, Zval =  4.0
     Generated by new atomic code, or converted to UPF format
     Using radial grid of  899 points,  6 beta functions with: 
                l(1) =   0
                l(2) =   0
                l(3) =   1
                l(4) =   1
                l(5) =   2
                l(6) =   2
     Q(r) pseudized with  8 coefficients,  rinner =    0.900   0.900   0.900
                                                       0.900   0.900

     atomic species   valence    mass     pseudopotential
        Si             4.00    28.08600     Si( 1.00)

     48 Sym. Ops., with inversion, found



   Cartesian axes

     site n.     atom                  positions (alat units)
         1           Si  tau(   1) = (   0.0000000   0.0000000   0.0000000  )
         2           Si  tau(   2) = (   0.2500000   0.2500000   0.2500000  )

     number of k points=   120

     Number of k-points >= 100: set verbosity='high' to print them.

     Dense  grid:     2837 G-vectors     FFT dimensions: (  20,  20,  20)

     Estimated max dynamical RAM per process >       0.33MB

     Estimated total allocated dynamical RAM >       1.32MB

     Check: negative/imaginary core charge=   -0.000006    0.000000

     The potential is recalculated from file :
     ./_ph0/silicon.10.3403.save/charge-density.dat

     Starting wfc are    8 atomic wfcs

     Band Structure Calculation
     Davidson diagonalization with overlap

     ethr =  1.25E-10,  avg # of iterations = 11.7

     total cpu time spent up to now is        1.1 secs

     End of band structure calculation

     Number of k-points >= 100: set verbosity='high' to print the bands.

     highest occupied level (ev):     5.6806

     Writing output data file silicon.10.3403.save

                                                                                

     bravais-lattice index     =            2
     lattice parameter (alat)  =      10.3403  a.u.
     unit-cell volume          =     276.4009 (a.u.)^3
     number of atoms/cell      =            2
     number of atomic types    =            1
     kinetic-energy cut-off    =      18.0000  Ry
     charge density cut-off    =      72.0000  Ry
     convergence threshold     =      1.0E-12
     beta                      =       0.7000
     number of iterations used =            4
     Exchange-correlation      = SLA  PW   PBE  PBE ( 1  4  3  4 0 0)


     celldm(1)=   10.34030  celldm(2)=    0.00000  celldm(3)=    0.00000
     celldm(4)=    0.00000  celldm(5)=    0.00000  celldm(6)=    0.00000

     crystal axes: (cart. coord. in units of alat)
               a(1) = ( -0.5000  0.0000  0.5000 )  
               a(2) = (  0.0000  0.5000  0.5000 )  
               a(3) = ( -0.5000  0.5000  0.0000 )  

     reciprocal axes: (cart. coord. in units 2 pi/alat)
               b(1) = ( -1.0000 -1.0000  1.0000 )  
               b(2) = (  1.0000  1.0000  1.0000 )  
               b(3) = ( -1.0000  1.0000 -1.0000 )  


     Atoms inside the unit cell: 

     Cartesian axes

     site n.  atom      mass           positions (alat units)
        1     Si  28.0860   tau(    1) = (    0.00000    0.00000    0.00000  )
        2     Si  28.0860   tau(    2) = (    0.25000    0.25000    0.25000  )

     Computing dynamical matrix for 
                    q = (  -0.2500000   0.2500000  -0.2500000 )

      6 Sym.Ops. (no q -> -q+G )


     G cutoff =  195.0020  (    710 G-vectors)     FFT grid: ( 20, 20, 20)
     number of k points=   120

     PseudoPot. # 1 for Si read from file:
     /home/max/quantum_espresso/qe-6.1/pseudo/si_pbe_v1.uspp.F.UPF.txt
     MD5 check sum: a056efeee980c13900f22a371efd63c1
     Pseudo is Ultrasoft + core correction, Zval =  4.0
     Generated by new atomic code, or converted to UPF format
     Using radial grid of  899 points,  6 beta functions with: 
                l(1) =   0
                l(2) =   0
                l(3) =   1
                l(4) =   1
                l(5) =   2
                l(6) =   2
     Q(r) pseudized with  8 coefficients,  rinner =    0.900   0.900   0.900
                                                       0.900   0.900

     Mode symmetry, C_3v (3m)   point group:


     Atomic displacements:
     There are   4 irreducible representations

     Representation     1      1 modes -A_1  L_1  To be done

     Representation     2      1 modes -A_1  L_1  To be done

     Representation     3      2 modes -E    L_3  To be done

     Representation     4      2 modes -E    L_3  To be done



     Alpha used in Ewald sum =   0.7000
     PHONON       :     5.28s CPU         5.72s WALL



     Representation #  1 mode #   1

     Self-consistent Calculation

      iter #   1 total cpu time :     5.9 secs   av.it.:   5.5
      thresh= 1.000E-02 alpha_mix =  0.700 |ddv_scf|^2 =  2.467E-03

      iter #   2 total cpu time :     6.2 secs   av.it.:   7.5
      thresh= 4.967E-03 alpha_mix =  0.700 |ddv_scf|^2 =  3.725E-02

      iter #   3 total cpu time :     6.4 secs   av.it.:   6.3
      thresh= 1.000E-02 alpha_mix =  0.700 |ddv_scf|^2 =  1.719E-06

      iter #   4 total cpu time :     7.0 secs   av.it.:   8.2
      thresh= 1.311E-04 alpha_mix =  0.700 |ddv_scf|^2 =  1.166E-07

      iter #   5 total cpu time :     7.2 secs   av.it.:   8.1
      thresh= 3.414E-05 alpha_mix =  0.700 |ddv_scf|^2 =  4.673E-09

      iter #   6 total cpu time :     7.5 secs   av.it.:   8.0
      thresh= 6.836E-06 alpha_mix =  0.700 |ddv_scf|^2 =  4.963E-09

      iter #   7 total cpu time :     7.7 secs   av.it.:   6.0
      thresh= 7.045E-06 alpha_mix =  0.700 |ddv_scf|^2 =  4.342E-10

      iter #   8 total cpu time :     7.9 secs   av.it.:   7.3
      thresh= 2.084E-06 alpha_mix =  0.700 |ddv_scf|^2 =  3.996E-12

      iter #   9 total cpu time :     8.2 secs   av.it.:   7.2
      thresh= 1.999E-07 alpha_mix =  0.700 |ddv_scf|^2 =  1.465E-13

     End of self-consistent calculation

     Convergence has been achieved 


     Representation #  2 mode #   2

     Self-consistent Calculation

      iter #   1 total cpu time :     8.4 secs   av.it.:   5.5
      thresh= 1.000E-02 alpha_mix =  0.700 |ddv_scf|^2 =  2.467E-03

      iter #   2 total cpu time :     8.7 secs   av.it.:   7.5
      thresh= 4.967E-03 alpha_mix =  0.700 |ddv_scf|^2 =  3.725E-02

      iter #   3 total cpu time :     9.2 secs   av.it.:   6.3
      thresh= 1.000E-02 alpha_mix =  0.700 |ddv_scf|^2 =  1.719E-06

      iter #   4 total cpu time :     9.5 secs   av.it.:   8.2
      thresh= 1.311E-04 alpha_mix =  0.700 |ddv_scf|^2 =  1.166E-07

      iter #   5 total cpu time :     9.7 secs   av.it.:   8.1
      thresh= 3.414E-05 alpha_mix =  0.700 |ddv_scf|^2 =  4.673E-09

      iter #   6 total cpu time :    10.0 secs   av.it.:   8.0
      thresh= 6.836E-06 alpha_mix =  0.700 |ddv_scf|^2 =  4.963E-09

      iter #   7 total cpu time :    10.2 secs   av.it.:   6.0
      thresh= 7.045E-06 alpha_mix =  0.700 |ddv_scf|^2 =  4.342E-10

      iter #   8 total cpu time :    10.4 secs   av.it.:   7.3
      thresh= 2.084E-06 alpha_mix =  0.700 |ddv_scf|^2 =  3.996E-12

      iter #   9 total cpu time :    10.7 secs   av.it.:   7.2
      thresh= 1.999E-07 alpha_mix =  0.700 |ddv_scf|^2 =  1.465E-13

     End of self-consistent calculation

     Convergence has been achieved 


     Representation #  3 modes #   3  4

     Self-consistent Calculation

      iter #   1 total cpu time :    11.4 secs   av.it.:   4.9
      thresh= 1.000E-02 alpha_mix =  0.700 |ddv_scf|^2 =  5.705E-07

      iter #   2 total cpu time :    12.0 secs   av.it.:   9.4
      thresh= 7.553E-05 alpha_mix =  0.700 |ddv_scf|^2 =  4.287E-08

      iter #   3 total cpu time :    12.5 secs   av.it.:   9.2
      thresh= 2.071E-05 alpha_mix =  0.700 |ddv_scf|^2 =  3.706E-09

      iter #   4 total cpu time :    13.4 secs   av.it.:   8.9
      thresh= 6.088E-06 alpha_mix =  0.700 |ddv_scf|^2 =  1.113E-11

      iter #   5 total cpu time :    14.0 secs   av.it.:   9.2
      thresh= 3.337E-07 alpha_mix =  0.700 |ddv_scf|^2 =  4.981E-13

     End of self-consistent calculation

     Convergence has been achieved 


     Representation #  4 modes #   5  6

     Self-consistent Calculation

      iter #   1 total cpu time :    14.4 secs   av.it.:   5.0
      thresh= 1.000E-02 alpha_mix =  0.700 |ddv_scf|^2 =  5.703E-07

      iter #   2 total cpu time :    15.3 secs   av.it.:   9.6
      thresh= 7.552E-05 alpha_mix =  0.700 |ddv_scf|^2 =  4.283E-08

      iter #   3 total cpu time :    15.9 secs   av.it.:   9.4
      thresh= 2.069E-05 alpha_mix =  0.700 |ddv_scf|^2 =  3.703E-09

      iter #   4 total cpu time :    16.4 secs   av.it.:   9.1
      thresh= 6.085E-06 alpha_mix =  0.700 |ddv_scf|^2 =  1.113E-11

      iter #   5 total cpu time :    17.3 secs   av.it.:   9.2
      thresh= 3.336E-07 alpha_mix =  0.700 |ddv_scf|^2 =  4.980E-13

     End of self-consistent calculation

     Convergence has been achieved 

     Number of q in the star =    8
     List of q in the star:
          1  -0.250000000   0.250000000  -0.250000000
          2   0.250000000  -0.250000000  -0.250000000
          3   0.250000000  -0.250000000   0.250000000
          4   0.250000000   0.250000000   0.250000000
          5  -0.250000000  -0.250000000  -0.250000000
          6  -0.250000000  -0.250000000   0.250000000
          7  -0.250000000   0.250000000   0.250000000
          8   0.250000000   0.250000000  -0.250000000

     Diagonalizing the dynamical matrix

     q = (   -0.250000000   0.250000000  -0.250000000 ) 

 **************************************************************************
     freq (    1) =       3.397345 [THz] =     113.323244 [cm-1]
     freq (    2) =       3.397345 [THz] =     113.323244 [cm-1]
     freq (    3) =       6.928710 [THz] =     231.116901 [cm-1]
     freq (    4) =      14.435329 [THz] =     481.510746 [cm-1]
     freq (    5) =      14.746245 [THz] =     491.881784 [cm-1]
     freq (    6) =      14.746245 [THz] =     491.881784 [cm-1]
 **************************************************************************

     Mode symmetry, C_3v (3m)   point group:

     freq (  1 -  2) =        113.3  [cm-1]   --> E    L_3           
     freq (  3 -  3) =        231.1  [cm-1]   --> A_1  L_1           
     freq (  4 -  4) =        481.5  [cm-1]   --> A_1  L_1           
     freq (  5 -  6) =        491.9  [cm-1]   --> E    L_3           

     Calculation of q =    0.5000000  -0.5000000   0.5000000

   Info: using nr1, nr2, nr3 values from input

   Info: using nr1, nr2, nr3 values from input

     Parallelization info
     --------------------
     sticks:   dense  smooth     PW     G-vecs:    dense   smooth      PW
     Min          64      64     27                  709      709     186
     Max          67      67     28                  710      710     189
     Sum         265     265    109                 2837     2837     749



     bravais-lattice index     =            2
     lattice parameter (alat)  =      10.3403  a.u.
     unit-cell volume          =     276.4009 (a.u.)^3
     number of atoms/cell      =            2
     number of atomic types    =            1
     number of electrons       =         8.00
     number of Kohn-Sham states=            4
     kinetic-energy cutoff     =      18.0000  Ry
     charge density cutoff     =      72.0000  Ry
     Exchange-correlation      = SLA  PW   PBE  PBE ( 1  4  3  4 0 0)

     celldm(1)=  10.340300  celldm(2)=   0.000000  celldm(3)=   0.000000
     celldm(4)=   0.000000  celldm(5)=   0.000000  celldm(6)=   0.000000

     crystal axes: (cart. coord. in units of alat)
               a(1) = (  -0.500000   0.000000   0.500000 )  
               a(2) = (   0.000000   0.500000   0.500000 )  
               a(3) = (  -0.500000   0.500000   0.000000 )  

     reciprocal axes: (cart. coord. in units 2 pi/alat)
               b(1) = ( -1.000000 -1.000000  1.000000 )  
               b(2) = (  1.000000  1.000000  1.000000 )  
               b(3) = ( -1.000000  1.000000 -1.000000 )  


     PseudoPot. # 1 for Si read from file:
     /home/max/quantum_espresso/qe-6.1/pseudo/si_pbe_v1.uspp.F.UPF.txt
     MD5 check sum: a056efeee980c13900f22a371efd63c1
     Pseudo is Ultrasoft + core correction, Zval =  4.0
     Generated by new atomic code, or converted to UPF format
     Using radial grid of  899 points,  6 beta functions with: 
                l(1) =   0
                l(2) =   0
                l(3) =   1
                l(4) =   1
                l(5) =   2
                l(6) =   2
     Q(r) pseudized with  8 coefficients,  rinner =    0.900   0.900   0.900
                                                       0.900   0.900

     atomic species   valence    mass     pseudopotential
        Si             4.00    28.08600     Si( 1.00)

     48 Sym. Ops., with inversion, found



   Cartesian axes

     site n.     atom                  positions (alat units)
         1           Si  tau(   1) = (   0.0000000   0.0000000   0.0000000  )
         2           Si  tau(   2) = (   0.2500000   0.2500000   0.2500000  )

     number of k points=    60
                       cart. coord. in units 2pi/alat
        k(    1) = (  -0.1250000   0.1250000   0.1250000), wk =   0.0468750
        k(    2) = (   0.3750000  -0.3750000   0.6250000), wk =   0.0000000
        k(    3) = (  -0.3750000   0.3750000  -0.1250000), wk =   0.0468750
        k(    4) = (   0.1250000  -0.1250000   0.3750000), wk =   0.0000000
        k(    5) = (   0.3750000  -0.3750000   0.6250000), wk =   0.0468750
        k(    6) = (   0.8750000  -0.8750000   1.1250000), wk =   0.0000000
        k(    7) = (   0.1250000  -0.1250000   0.3750000), wk =   0.0468750
        k(    8) = (   0.6250000  -0.6250000   0.8750000), wk =   0.0000000
        k(    9) = (  -0.1250000   0.6250000   0.1250000), wk =   0.0937500
        k(   10) = (   0.3750000   0.1250000   0.6250000), wk =   0.0000000
        k(   11) = (   0.6250000  -0.1250000   0.8750000), wk =   0.0937500
        k(   12) = (   1.1250000  -0.6250000   1.3750000), wk =   0.0000000
        k(   13) = (   0.3750000   0.1250000   0.6250000), wk =   0.0937500
        k(   14) = (   0.8750000  -0.3750000   1.1250000), wk =   0.0000000
        k(   15) = (  -0.1250000  -0.8750000   0.1250000), wk =   0.0937500
        k(   16) = (   0.3750000  -1.3750000   0.6250000), wk =   0.0000000
        k(   17) = (  -0.3750000   0.3750000   0.3750000), wk =   0.0468750
        k(   18) = (   0.1250000  -0.1250000   0.8750000), wk =   0.0000000
        k(   19) = (   0.3750000  -0.3750000   1.1250000), wk =   0.0468750
        k(   20) = (   0.8750000  -0.8750000   1.6250000), wk =   0.0000000
        k(   21) = (   0.1250000  -0.1250000   0.1250000), wk =   0.0156250
        k(   22) = (   0.6250000  -0.6250000   0.6250000), wk =   0.0000000
        k(   23) = (  -0.3750000  -0.3750000  -0.1250000), wk =   0.0937500
        k(   24) = (   0.1250000  -0.8750000   0.3750000), wk =   0.0000000
        k(   25) = (  -0.1250000  -0.3750000   0.3750000), wk =   0.0468750
        k(   26) = (   0.3750000  -0.8750000   0.8750000), wk =   0.0000000
        k(   27) = (   0.3750000   0.3750000   0.6250000), wk =   0.0937500
        k(   28) = (   0.8750000  -0.1250000   1.1250000), wk =   0.0000000
        k(   29) = (   0.6250000   0.3750000  -0.3750000), wk =   0.0468750
        k(   30) = (   1.1250000  -0.1250000   0.1250000), wk =   0.0000000
        k(   31) = (   0.1250000   0.1250000   0.3750000), wk =   0.0937500
        k(   32) = (   0.6250000  -0.3750000   0.8750000), wk =   0.0000000
        k(   33) = (   0.3750000   0.1250000  -0.1250000), wk =   0.0468750
        k(   34) = (   0.8750000  -0.3750000   0.3750000), wk =   0.0000000
        k(   35) = (  -0.1250000  -0.6250000  -0.1250000), wk =   0.0468750
        k(   36) = (   0.3750000  -1.1250000   0.3750000), wk =   0.0000000
        k(   37) = (   0.1250000  -0.6250000   0.1250000), wk =   0.0468750
        k(   38) = (   0.6250000  -1.1250000   0.6250000), wk =   0.0000000
        k(   39) = (   0.6250000   0.1250000   0.8750000), wk =   0.0937500
        k(   40) = (   1.1250000  -0.3750000   1.3750000), wk =   0.0000000
        k(   41) = (  -0.8750000   0.1250000   0.6250000), wk =   0.0937500
        k(   42) = (  -0.3750000  -0.3750000   1.1250000), wk =   0.0000000
        k(   43) = (   0.8750000   0.1250000  -0.6250000), wk =   0.0937500
        k(   44) = (   1.3750000  -0.3750000  -0.1250000), wk =   0.0000000
        k(   45) = (   0.3750000  -0.1250000   0.6250000), wk =   0.0937500
        k(   46) = (   0.8750000  -0.6250000   1.1250000), wk =   0.0000000
        k(   47) = (  -0.6250000  -0.1250000   0.3750000), wk =   0.0937500
        k(   48) = (  -0.1250000  -0.6250000   0.8750000), wk =   0.0000000
        k(   49) = (   0.6250000  -0.1250000  -0.3750000), wk =   0.0937500
        k(   50) = (   1.1250000  -0.6250000   0.1250000), wk =   0.0000000
        k(   51) = (  -0.1250000   0.8750000  -0.1250000), wk =   0.0468750
        k(   52) = (   0.3750000   0.3750000   0.3750000), wk =   0.0000000
        k(   53) = (   0.1250000   0.8750000   0.1250000), wk =   0.0468750
        k(   54) = (   0.6250000   0.3750000   0.6250000), wk =   0.0000000
        k(   55) = (   0.3750000  -0.3750000   0.3750000), wk =   0.0156250
        k(   56) = (   0.8750000  -0.8750000   0.8750000), wk =   0.0000000
        k(   57) = (   0.3750000   0.3750000   1.1250000), wk =   0.0937500
        k(   58) = (   0.8750000  -0.1250000   1.6250000), wk =   0.0000000
        k(   59) = (   1.1250000   0.3750000  -0.3750000), wk =   0.0468750
        k(   60) = (   1.6250000  -0.1250000   0.1250000), wk =   0.0000000

     Dense  grid:     2837 G-vectors     FFT dimensions: (  20,  20,  20)

     Estimated max dynamical RAM per process >       0.33MB

     Estimated total allocated dynamical RAM >       1.32MB

     Check: negative/imaginary core charge=   -0.000006    0.000000

     The potential is recalculated from file :
     ./_ph0/silicon.10.3403.save/charge-density.dat

     Starting wfc are    8 atomic wfcs

     Band Structure Calculation
     Davidson diagonalization with overlap

     ethr =  1.25E-10,  avg # of iterations = 11.7

     total cpu time spent up to now is        1.6 secs

     End of band structure calculation

          k =-0.1250 0.1250 0.1250 (   338 PWs)   bands (ev):

    -5.6373   4.3720   5.6806   5.6806

          k = 0.3750-0.3750 0.6250 (   361 PWs)   bands (ev):

    -3.4828  -0.6853   3.7206   4.4310

          k =-0.3750 0.3750-0.1250 (   352 PWs)   bands (ev):

    -4.6154   1.3830   3.7032   5.1991

          k = 0.1250-0.1250 0.3750 (   353 PWs)   bands (ev):

    -5.1120   2.7544   4.6759   4.7383

          k = 0.3750-0.3750 0.6250 (   361 PWs)   bands (ev):

    -3.4828  -0.6853   3.7206   4.4310

          k = 0.8750-0.8750 1.1250 (   338 PWs)   bands (ev):

    -5.6373   4.3720   5.6806   5.6806

          k = 0.1250-0.1250 0.3750 (   353 PWs)   bands (ev):

    -5.1120   2.7544   4.6759   4.7383

          k = 0.6250-0.6250 0.8750 (   352 PWs)   bands (ev):

    -4.6154   1.3830   3.7032   5.1991

          k =-0.1250 0.6250 0.1250 (   351 PWs)   bands (ev):

    -4.0846   1.0429   3.3569   3.8044

          k = 0.3750 0.1250 0.6250 (   357 PWs)   bands (ev):

    -3.6716   0.1762   2.7180   4.0794

          k = 0.6250-0.1250 0.8750 (   361 PWs)   bands (ev):

    -2.4527  -0.9150   2.0123   3.0812

          k = 1.1250-0.6250 1.3750 (   352 PWs)   bands (ev):

    -4.6154   1.3830   3.7032   5.1991

          k = 0.3750 0.1250 0.6250 (   357 PWs)   bands (ev):

    -3.6716   0.1762   2.7180   4.0794

          k = 0.8750-0.3750 1.1250 (   351 PWs)   bands (ev):

    -4.0846   1.0429   3.3569   3.8044

          k =-0.1250-0.8750 0.1250 (   358 PWs)   bands (ev):

    -2.6183  -0.8183   2.6169   3.3387

          k = 0.3750-1.3750 0.6250 (   361 PWs)   bands (ev):

    -3.4828  -0.6853   3.7206   4.4310

          k =-0.3750 0.3750 0.3750 (   353 PWs)   bands (ev):

    -4.1854   0.1006   4.8935   4.8935

          k = 0.1250-0.1250 0.8750 (   358 PWs)   bands (ev):

    -2.6183  -0.8183   2.6169   3.3387

          k = 0.3750-0.3750 1.1250 (   361 PWs)   bands (ev):

    -2.9885  -0.6077   2.0683   4.1160

          k = 0.8750-0.8750 1.6250 (   351 PWs)   bands (ev):

    -4.0846   1.0429   3.3569   3.8044

          k = 0.1250-0.1250 0.1250 (   338 PWs)   bands (ev):

    -5.6373   4.3720   5.6806   5.6806

          k = 0.6250-0.6250 0.6250 (   353 PWs)   bands (ev):

    -4.1854   0.1006   4.8935   4.8935

          k =-0.3750-0.3750-0.1250 (   352 PWs)   bands (ev):

    -4.6154   1.3830   3.7032   5.1991

          k = 0.1250-0.8750 0.3750 (   361 PWs)   bands (ev):

    -2.4527  -0.9150   2.0123   3.0812

          k =-0.1250-0.3750 0.3750 (   352 PWs)   bands (ev):

    -4.6154   1.3830   3.7032   5.1991

          k = 0.3750-0.8750 0.8750 (   351 PWs)   bands (ev):

    -4.0846   1.0429   3.3569   3.8044

          k = 0.3750 0.3750 0.6250 (   361 PWs)   bands (ev):

    -3.4828  -0.6853   3.7206   4.4310

          k = 0.8750-0.1250 1.1250 (   358 PWs)   bands (ev):

    -2.6183  -0.8183   2.6169   3.3387

          k = 0.6250 0.3750-0.3750 (   361 PWs)   bands (ev):

    -3.4828  -0.6853   3.7206   4.4310

          k = 1.1250-0.1250 0.1250 (   358 PWs)   bands (ev):

    -2.6183  -0.8183   2.6169   3.3387

          k = 0.1250 0.1250 0.3750 (   353 PWs)   bands (ev):

    -5.1120   2.7544   4.6759   4.7383

          k = 0.6250-0.3750 0.8750 (   357 PWs)   bands (ev):

    -3.6716   0.1762   2.7180   4.0794

          k = 0.3750 0.1250-0.1250 (   353 PWs)   bands (ev):

    -5.1120   2.7544   4.6759   4.7383

          k = 0.8750-0.3750 0.3750 (   361 PWs)   bands (ev):

    -2.9885  -0.6077   2.0683   4.1160

          k =-0.1250-0.6250-0.1250 (   351 PWs)   bands (ev):

    -4.0846   1.0429   3.3569   3.8044

          k = 0.3750-1.1250 0.3750 (   361 PWs)   bands (ev):

    -2.9885  -0.6077   2.0683   4.1160

          k = 0.1250-0.6250 0.1250 (   351 PWs)   bands (ev):

    -4.0846   1.0429   3.3569   3.8044

          k = 0.6250-1.1250 0.6250 (   352 PWs)   bands (ev):

    -4.6154   1.3830   3.7032   5.1991

          k = 0.6250 0.1250 0.8750 (   361 PWs)   bands (ev):

    -2.4527  -0.9150   2.0123   3.0812

          k = 1.1250-0.3750 1.3750 (   357 PWs)   bands (ev):

    -3.6716   0.1762   2.7180   4.0794

          k =-0.8750 0.1250 0.6250 (   361 PWs)   bands (ev):

    -2.4527  -0.9150   2.0123   3.0812

          k =-0.3750-0.3750 1.1250 (   361 PWs)   bands (ev):

    -2.9885  -0.6077   2.0683   4.1160

          k = 0.8750 0.1250-0.6250 (   361 PWs)   bands (ev):

    -2.4527  -0.9150   2.0123   3.0812

          k = 1.3750-0.3750-0.1250 (   357 PWs)   bands (ev):

    -3.6716   0.1762   2.7180   4.0794

          k = 0.3750-0.1250 0.6250 (   357 PWs)   bands (ev):

    -3.6716   0.1762   2.7180   4.0794

          k = 0.8750-0.6250 1.1250 (   353 PWs)   bands (ev):

    -5.1120   2.7544   4.6759   4.7383

          k =-0.6250-0.1250 0.3750 (   357 PWs)   bands (ev):

    -3.6716   0.1762   2.7180   4.0794

          k =-0.1250-0.6250 0.8750 (   361 PWs)   bands (ev):

    -2.4527  -0.9150   2.0123   3.0812

          k = 0.6250-0.1250-0.3750 (   357 PWs)   bands (ev):

    -3.6716   0.1762   2.7180   4.0794

          k = 1.1250-0.6250 0.1250 (   361 PWs)   bands (ev):

    -2.4527  -0.9150   2.0123   3.0812

          k =-0.1250 0.8750-0.1250 (   358 PWs)   bands (ev):

    -2.6183  -0.8183   2.6169   3.3387

          k = 0.3750 0.3750 0.3750 (   353 PWs)   bands (ev):

    -4.1854   0.1006   4.8935   4.8935

          k = 0.1250 0.8750 0.1250 (   358 PWs)   bands (ev):

    -2.6183  -0.8183   2.6169   3.3387

          k = 0.6250 0.3750 0.6250 (   361 PWs)   bands (ev):

    -3.4828  -0.6853   3.7206   4.4310

          k = 0.3750-0.3750 0.3750 (   353 PWs)   bands (ev):

    -4.1854   0.1006   4.8935   4.8935

          k = 0.8750-0.8750 0.8750 (   338 PWs)   bands (ev):

    -5.6373   4.3720   5.6806   5.6806

          k = 0.3750 0.3750 1.1250 (   361 PWs)   bands (ev):

    -2.9885  -0.6077   2.0683   4.1160

          k = 0.8750-0.1250 1.6250 (   361 PWs)   bands (ev):

    -2.4527  -0.9150   2.0123   3.0812

          k = 1.1250 0.3750-0.3750 (   361 PWs)   bands (ev):

    -2.9885  -0.6077   2.0683   4.1160

          k = 1.6250-0.1250 0.1250 (   353 PWs)   bands (ev):

    -5.1120   2.7544   4.6759   4.7383

     highest occupied level (ev):     5.6806

     Writing output data file silicon.10.3403.save

                                                                                

     bravais-lattice index     =            2
     lattice parameter (alat)  =      10.3403  a.u.
     unit-cell volume          =     276.4009 (a.u.)^3
     number of atoms/cell      =            2
     number of atomic types    =            1
     kinetic-energy cut-off    =      18.0000  Ry
     charge density cut-off    =      72.0000  Ry
     convergence threshold     =      1.0E-12
     beta                      =       0.7000
     number of iterations used =            4
     Exchange-correlation      = SLA  PW   PBE  PBE ( 1  4  3  4 0 0)


     celldm(1)=   10.34030  celldm(2)=    0.00000  celldm(3)=    0.00000
     celldm(4)=    0.00000  celldm(5)=    0.00000  celldm(6)=    0.00000

     crystal axes: (cart. coord. in units of alat)
               a(1) = ( -0.5000  0.0000  0.5000 )  
               a(2) = (  0.0000  0.5000  0.5000 )  
               a(3) = ( -0.5000  0.5000  0.0000 )  

     reciprocal axes: (cart. coord. in units 2 pi/alat)
               b(1) = ( -1.0000 -1.0000  1.0000 )  
               b(2) = (  1.0000  1.0000  1.0000 )  
               b(3) = ( -1.0000  1.0000 -1.0000 )  


     Atoms inside the unit cell: 

     Cartesian axes

     site n.  atom      mass           positions (alat units)
        1     Si  28.0860   tau(    1) = (    0.00000    0.00000    0.00000  )
        2     Si  28.0860   tau(    2) = (    0.25000    0.25000    0.25000  )

     Computing dynamical matrix for 
                    q = (   0.5000000  -0.5000000   0.5000000 )

     13 Sym.Ops. (with q -> -q+G )


     G cutoff =  195.0020  (    710 G-vectors)     FFT grid: ( 20, 20, 20)
     number of k points=    60

     PseudoPot. # 1 for Si read from file:
     /home/max/quantum_espresso/qe-6.1/pseudo/si_pbe_v1.uspp.F.UPF.txt
     MD5 check sum: a056efeee980c13900f22a371efd63c1
     Pseudo is Ultrasoft + core correction, Zval =  4.0
     Generated by new atomic code, or converted to UPF format
     Using radial grid of  899 points,  6 beta functions with: 
                l(1) =   0
                l(2) =   0
                l(3) =   1
                l(4) =   1
                l(5) =   2
                l(6) =   2
     Q(r) pseudized with  8 coefficients,  rinner =    0.900   0.900   0.900
                                                       0.900   0.900


     Atomic displacements:
     There are   4 irreducible representations

     Representation     1      1 modes -  To be done

     Representation     2      1 modes -  To be done

     Representation     3      2 modes -  To be done

     Representation     4      2 modes -  To be done



     Alpha used in Ewald sum =   0.7000
     PHONON       :    16.57s CPU        18.02s WALL



     Representation #  1 mode #   1

     Self-consistent Calculation

      iter #   1 total cpu time :    18.1 secs   av.it.:   4.8
      thresh= 1.000E-02 alpha_mix =  0.700 |ddv_scf|^2 =  2.486E-05

      iter #   2 total cpu time :    18.3 secs   av.it.:   8.3
      thresh= 4.986E-04 alpha_mix =  0.700 |ddv_scf|^2 =  2.214E-05

      iter #   3 total cpu time :    18.4 secs   av.it.:   7.5
      thresh= 4.706E-04 alpha_mix =  0.700 |ddv_scf|^2 =  4.350E-08

      iter #   4 total cpu time :    18.5 secs   av.it.:   7.4
      thresh= 2.086E-05 alpha_mix =  0.700 |ddv_scf|^2 =  1.352E-10

      iter #   5 total cpu time :    18.8 secs   av.it.:   7.9
      thresh= 1.163E-06 alpha_mix =  0.700 |ddv_scf|^2 =  3.539E-12

      iter #   6 total cpu time :    19.2 secs   av.it.:   7.9
      thresh= 1.881E-07 alpha_mix =  0.700 |ddv_scf|^2 =  4.281E-14

     End of self-consistent calculation

     Convergence has been achieved 


     Representation #  2 mode #   2

     Self-consistent Calculation

      iter #   1 total cpu time :    19.3 secs   av.it.:   5.6
      thresh= 1.000E-02 alpha_mix =  0.700 |ddv_scf|^2 =  3.453E-04

      iter #   2 total cpu time :    19.4 secs   av.it.:   8.3
      thresh= 1.858E-03 alpha_mix =  0.700 |ddv_scf|^2 =  1.064E-03

      iter #   3 total cpu time :    19.6 secs   av.it.:   7.1
      thresh= 3.262E-03 alpha_mix =  0.700 |ddv_scf|^2 =  1.302E-07

      iter #   4 total cpu time :    19.7 secs   av.it.:   8.2
      thresh= 3.608E-05 alpha_mix =  0.700 |ddv_scf|^2 =  8.374E-09

      iter #   5 total cpu time :    19.9 secs   av.it.:   8.5
      thresh= 9.151E-06 alpha_mix =  0.700 |ddv_scf|^2 =  1.345E-10

      iter #   6 total cpu time :    20.0 secs   av.it.:   8.2
      thresh= 1.160E-06 alpha_mix =  0.700 |ddv_scf|^2 =  2.496E-12

      iter #   7 total cpu time :    20.1 secs   av.it.:   7.9
      thresh= 1.580E-07 alpha_mix =  0.700 |ddv_scf|^2 =  4.890E-15

     End of self-consistent calculation

     Convergence has been achieved 


     Representation #  3 modes #   3  4

     Self-consistent Calculation

      iter #   1 total cpu time :    20.4 secs   av.it.:   4.7
      thresh= 1.000E-02 alpha_mix =  0.700 |ddv_scf|^2 =  3.321E-07

      iter #   2 total cpu time :    20.7 secs   av.it.:   9.0
      thresh= 5.763E-05 alpha_mix =  0.700 |ddv_scf|^2 =  2.812E-08

      iter #   3 total cpu time :    21.3 secs   av.it.:   8.3
      thresh= 1.677E-05 alpha_mix =  0.700 |ddv_scf|^2 =  5.008E-10

      iter #   4 total cpu time :    21.6 secs   av.it.:   8.8
      thresh= 2.238E-06 alpha_mix =  0.700 |ddv_scf|^2 =  6.198E-12

      iter #   5 total cpu time :    21.9 secs   av.it.:   8.7
      thresh= 2.490E-07 alpha_mix =  0.700 |ddv_scf|^2 =  3.096E-14

     End of self-consistent calculation

     Convergence has been achieved 


     Representation #  4 modes #   5  6

     Self-consistent Calculation

      iter #   1 total cpu time :    22.1 secs   av.it.:   5.0
      thresh= 1.000E-02 alpha_mix =  0.700 |ddv_scf|^2 =  9.857E-07

      iter #   2 total cpu time :    22.4 secs   av.it.:   9.4
      thresh= 9.928E-05 alpha_mix =  0.700 |ddv_scf|^2 =  7.743E-08

      iter #   3 total cpu time :    23.0 secs   av.it.:   9.3
      thresh= 2.783E-05 alpha_mix =  0.700 |ddv_scf|^2 =  5.010E-09

      iter #   4 total cpu time :    23.3 secs   av.it.:   8.5
      thresh= 7.078E-06 alpha_mix =  0.700 |ddv_scf|^2 =  6.431E-12

      iter #   5 total cpu time :    23.6 secs   av.it.:   8.8
      thresh= 2.536E-07 alpha_mix =  0.700 |ddv_scf|^2 =  2.322E-14

     End of self-consistent calculation

     Convergence has been achieved 

     Number of q in the star =    4
     List of q in the star:
          1   0.500000000  -0.500000000   0.500000000
          2   0.500000000   0.500000000   0.500000000
          3  -0.500000000   0.500000000   0.500000000
          4   0.500000000   0.500000000  -0.500000000

     Diagonalizing the dynamical matrix

     q = (    0.500000000  -0.500000000   0.500000000 ) 

 **************************************************************************
     freq (    1) =       4.774724 [THz] =     159.267635 [cm-1]
     freq (    2) =       4.774724 [THz] =     159.267635 [cm-1]
     freq (    3) =      11.809673 [THz] =     393.928292 [cm-1]
     freq (    4) =      12.142586 [THz] =     405.033088 [cm-1]
     freq (    5) =      14.671598 [THz] =     489.391834 [cm-1]
     freq (    6) =      14.671598 [THz] =     489.391834 [cm-1]
 **************************************************************************

     Calculation of q =    0.0000000   0.5000000   0.0000000

   Info: using nr1, nr2, nr3 values from input

   Info: using nr1, nr2, nr3 values from input

     Parallelization info
     --------------------
     sticks:   dense  smooth     PW     G-vecs:    dense   smooth      PW
     Min          64      64     27                  709      709     175
     Max          67      67     28                  710      710     176
     Sum         265     265    109                 2837     2837     701



     bravais-lattice index     =            2
     lattice parameter (alat)  =      10.3403  a.u.
     unit-cell volume          =     276.4009 (a.u.)^3
     number of atoms/cell      =            2
     number of atomic types    =            1
     number of electrons       =         8.00
     number of Kohn-Sham states=            4
     kinetic-energy cutoff     =      18.0000  Ry
     charge density cutoff     =      72.0000  Ry
     Exchange-correlation      = SLA  PW   PBE  PBE ( 1  4  3  4 0 0)

     celldm(1)=  10.340300  celldm(2)=   0.000000  celldm(3)=   0.000000
     celldm(4)=   0.000000  celldm(5)=   0.000000  celldm(6)=   0.000000

     crystal axes: (cart. coord. in units of alat)
               a(1) = (  -0.500000   0.000000   0.500000 )  
               a(2) = (   0.000000   0.500000   0.500000 )  
               a(3) = (  -0.500000   0.500000   0.000000 )  

     reciprocal axes: (cart. coord. in units 2 pi/alat)
               b(1) = ( -1.000000 -1.000000  1.000000 )  
               b(2) = (  1.000000  1.000000  1.000000 )  
               b(3) = ( -1.000000  1.000000 -1.000000 )  


     PseudoPot. # 1 for Si read from file:
     /home/max/quantum_espresso/qe-6.1/pseudo/si_pbe_v1.uspp.F.UPF.txt
     MD5 check sum: a056efeee980c13900f22a371efd63c1
     Pseudo is Ultrasoft + core correction, Zval =  4.0
     Generated by new atomic code, or converted to UPF format
     Using radial grid of  899 points,  6 beta functions with: 
                l(1) =   0
                l(2) =   0
                l(3) =   1
                l(4) =   1
                l(5) =   2
                l(6) =   2
     Q(r) pseudized with  8 coefficients,  rinner =    0.900   0.900   0.900
                                                       0.900   0.900

     atomic species   valence    mass     pseudopotential
        Si             4.00    28.08600     Si( 1.00)

     48 Sym. Ops., with inversion, found



   Cartesian axes

     site n.     atom                  positions (alat units)
         1           Si  tau(   1) = (   0.0000000   0.0000000   0.0000000  )
         2           Si  tau(   2) = (   0.2500000   0.2500000   0.2500000  )

     number of k points=    80
                       cart. coord. in units 2pi/alat
        k(    1) = (  -0.1250000   0.1250000   0.1250000), wk =   0.0312500
        k(    2) = (  -0.1250000   0.6250000   0.1250000), wk =   0.0000000
        k(    3) = (  -0.3750000   0.3750000  -0.1250000), wk =   0.0625000
        k(    4) = (  -0.3750000   0.8750000  -0.1250000), wk =   0.0000000
        k(    5) = (   0.3750000  -0.3750000   0.6250000), wk =   0.0625000
        k(    6) = (   0.3750000   0.1250000   0.6250000), wk =   0.0000000
        k(    7) = (   0.1250000  -0.1250000   0.3750000), wk =   0.0625000
        k(    8) = (   0.1250000   0.3750000   0.3750000), wk =   0.0000000
        k(    9) = (  -0.1250000   0.6250000   0.1250000), wk =   0.0312500
        k(   10) = (  -0.1250000   1.1250000   0.1250000), wk =   0.0000000
        k(   11) = (   0.6250000  -0.1250000   0.8750000), wk =   0.0625000
        k(   12) = (   0.6250000   0.3750000   0.8750000), wk =   0.0000000
        k(   13) = (   0.3750000   0.1250000   0.6250000), wk =   0.0625000
        k(   14) = (   0.3750000   0.6250000   0.6250000), wk =   0.0000000
        k(   15) = (  -0.1250000  -0.8750000   0.1250000), wk =   0.0312500
        k(   16) = (  -0.1250000  -0.3750000   0.1250000), wk =   0.0000000
        k(   17) = (  -0.3750000   0.3750000   0.3750000), wk =   0.0312500
        k(   18) = (  -0.3750000   0.8750000   0.3750000), wk =   0.0000000
        k(   19) = (   0.3750000  -0.3750000   1.1250000), wk =   0.0625000
        k(   20) = (   0.3750000   0.1250000   1.1250000), wk =   0.0000000
        k(   21) = (  -0.1250000  -0.1250000   0.1250000), wk =   0.0312500
        k(   22) = (  -0.1250000   0.3750000   0.1250000), wk =   0.0000000
        k(   23) = (   0.1250000  -0.3750000   0.3750000), wk =   0.0625000
        k(   24) = (   0.1250000   0.1250000   0.3750000), wk =   0.0000000
        k(   25) = (   0.3750000  -0.1250000   0.3750000), wk =   0.0312500
        k(   26) = (   0.3750000   0.3750000   0.3750000), wk =   0.0000000
        k(   27) = (   0.3750000   0.1250000   0.3750000), wk =   0.0312500
        k(   28) = (   0.3750000   0.6250000   0.3750000), wk =   0.0000000
        k(   29) = (  -0.6250000   0.3750000  -0.3750000), wk =   0.0625000
        k(   30) = (  -0.6250000   0.8750000  -0.3750000), wk =   0.0000000
        k(   31) = (  -0.3750000   0.6250000  -0.3750000), wk =   0.0312500
        k(   32) = (  -0.3750000   1.1250000  -0.3750000), wk =   0.0000000
        k(   33) = (  -0.3750000  -0.6250000  -0.3750000), wk =   0.0312500
        k(   34) = (  -0.3750000  -0.1250000  -0.3750000), wk =   0.0000000
        k(   35) = (  -0.3750000   0.1250000  -0.1250000), wk =   0.0625000
        k(   36) = (  -0.3750000   0.6250000  -0.1250000), wk =   0.0000000
        k(   37) = (  -0.1250000   0.3750000  -0.1250000), wk =   0.0312500
        k(   38) = (  -0.1250000   0.8750000  -0.1250000), wk =   0.0000000
        k(   39) = (  -0.1250000  -0.3750000  -0.1250000), wk =   0.0312500
        k(   40) = (  -0.1250000   0.1250000  -0.1250000), wk =   0.0000000
        k(   41) = (  -0.1250000  -0.6250000   0.1250000), wk =   0.0312500
        k(   42) = (  -0.1250000  -0.1250000   0.1250000), wk =   0.0000000
        k(   43) = (   0.6250000  -0.1250000  -0.1250000), wk =   0.0625000
        k(   44) = (   0.6250000   0.3750000  -0.1250000), wk =   0.0000000
        k(   45) = (   0.6250000   0.1250000   0.1250000), wk =   0.0625000
        k(   46) = (   0.6250000   0.6250000   0.1250000), wk =   0.0000000
        k(   47) = (  -0.8750000   0.1250000  -0.6250000), wk =   0.0625000
        k(   48) = (  -0.8750000   0.6250000  -0.6250000), wk =   0.0000000
        k(   49) = (  -0.1250000   0.6250000  -0.8750000), wk =   0.0625000
        k(   50) = (  -0.1250000   1.1250000  -0.8750000), wk =   0.0000000
        k(   51) = (  -0.1250000   0.8750000  -0.6250000), wk =   0.0625000
        k(   52) = (  -0.1250000   1.3750000  -0.6250000), wk =   0.0000000
        k(   53) = (  -0.1250000  -0.8750000  -0.6250000), wk =   0.0625000
        k(   54) = (  -0.1250000  -0.3750000  -0.6250000), wk =   0.0000000
        k(   55) = (   0.8750000  -0.6250000   0.1250000), wk =   0.0625000
        k(   56) = (   0.8750000  -0.1250000   0.1250000), wk =   0.0000000
        k(   57) = (  -0.6250000  -0.1250000  -0.3750000), wk =   0.0625000
        k(   58) = (  -0.6250000   0.3750000  -0.3750000), wk =   0.0000000
        k(   59) = (   0.1250000   0.3750000  -0.6250000), wk =   0.0625000
        k(   60) = (   0.1250000   0.8750000  -0.6250000), wk =   0.0000000
        k(   61) = (   0.1250000   0.6250000  -0.3750000), wk =   0.0625000
        k(   62) = (   0.1250000   1.1250000  -0.3750000), wk =   0.0000000
        k(   63) = (   0.1250000  -0.6250000  -0.3750000), wk =   0.0625000
        k(   64) = (   0.1250000  -0.1250000  -0.3750000), wk =   0.0000000
        k(   65) = (   0.6250000  -0.3750000  -0.1250000), wk =   0.0625000
        k(   66) = (   0.6250000   0.1250000  -0.1250000), wk =   0.0000000
        k(   67) = (  -0.1250000   0.8750000   0.1250000), wk =   0.0312500
        k(   68) = (  -0.1250000   1.3750000   0.1250000), wk =   0.0000000
        k(   69) = (  -0.8750000  -0.1250000  -0.1250000), wk =   0.0625000
        k(   70) = (  -0.8750000   0.3750000  -0.1250000), wk =   0.0000000
        k(   71) = (  -0.8750000   0.1250000   0.1250000), wk =   0.0625000
        k(   72) = (  -0.8750000   0.6250000   0.1250000), wk =   0.0000000
        k(   73) = (  -0.3750000  -0.3750000   0.3750000), wk =   0.0312500
        k(   74) = (  -0.3750000   0.1250000   0.3750000), wk =   0.0000000
        k(   75) = (  -1.1250000   0.3750000  -0.3750000), wk =   0.0625000
        k(   76) = (  -1.1250000   0.8750000  -0.3750000), wk =   0.0000000
        k(   77) = (  -0.3750000   1.1250000  -0.3750000), wk =   0.0312500
        k(   78) = (  -0.3750000   1.6250000  -0.3750000), wk =   0.0000000
        k(   79) = (  -0.3750000  -1.1250000  -0.3750000), wk =   0.0312500
        k(   80) = (  -0.3750000  -0.6250000  -0.3750000), wk =   0.0000000

     Dense  grid:     2837 G-vectors     FFT dimensions: (  20,  20,  20)

     Estimated max dynamical RAM per process >       0.33MB

     Estimated total allocated dynamical RAM >       1.32MB

     Check: negative/imaginary core charge=   -0.000006    0.000000

     The potential is recalculated from file :
     ./_ph0/silicon.10.3403.save/charge-density.dat

     Starting wfc are    8 atomic wfcs

     Band Structure Calculation
     Davidson diagonalization with overlap

     ethr =  1.25E-10,  avg # of iterations = 11.7

     total cpu time spent up to now is        2.2 secs

     End of band structure calculation

          k =-0.1250 0.1250 0.1250 (   338 PWs)   bands (ev):

    -5.6373   4.3720   5.6806   5.6806

          k =-0.1250 0.6250 0.1250 (   351 PWs)   bands (ev):

    -4.0846   1.0429   3.3569   3.8044

          k =-0.3750 0.3750-0.1250 (   352 PWs)   bands (ev):

    -4.6154   1.3830   3.7032   5.1991

          k =-0.3750 0.8750-0.1250 (   361 PWs)   bands (ev):

    -2.4527  -0.9150   2.0123   3.0812

          k = 0.3750-0.3750 0.6250 (   361 PWs)   bands (ev):

    -3.4828  -0.6853   3.7206   4.4310

          k = 0.3750 0.1250 0.6250 (   357 PWs)   bands (ev):

    -3.6716   0.1762   2.7180   4.0794

          k = 0.1250-0.1250 0.3750 (   353 PWs)   bands (ev):

    -5.1120   2.7544   4.6759   4.7383

          k = 0.1250 0.3750 0.3750 (   352 PWs)   bands (ev):

    -4.6154   1.3830   3.7032   5.1991

          k =-0.1250 0.6250 0.1250 (   351 PWs)   bands (ev):

    -4.0846   1.0429   3.3569   3.8044

          k =-0.1250 1.1250 0.1250 (   358 PWs)   bands (ev):

    -2.6183  -0.8183   2.6169   3.3387

          k = 0.6250-0.1250 0.8750 (   361 PWs)   bands (ev):

    -2.4527  -0.9150   2.0123   3.0812

          k = 0.6250 0.3750 0.8750 (   357 PWs)   bands (ev):

    -3.6716   0.1762   2.7180   4.0794

          k = 0.3750 0.1250 0.6250 (   357 PWs)   bands (ev):

    -3.6716   0.1762   2.7180   4.0794

          k = 0.3750 0.6250 0.6250 (   361 PWs)   bands (ev):

    -3.4828  -0.6853   3.7206   4.4310

          k =-0.1250-0.8750 0.1250 (   358 PWs)   bands (ev):

    -2.6183  -0.8183   2.6169   3.3387

          k =-0.1250-0.3750 0.1250 (   353 PWs)   bands (ev):

    -5.1120   2.7544   4.6759   4.7383

          k =-0.3750 0.3750 0.3750 (   353 PWs)   bands (ev):

    -4.1854   0.1006   4.8935   4.8935

          k =-0.3750 0.8750 0.3750 (   361 PWs)   bands (ev):

    -2.9885  -0.6077   2.0683   4.1160

          k = 0.3750-0.3750 1.1250 (   361 PWs)   bands (ev):

    -2.9885  -0.6077   2.0683   4.1160

          k = 0.3750 0.1250 1.1250 (   361 PWs)   bands (ev):

    -2.4527  -0.9150   2.0123   3.0812

          k =-0.1250-0.1250 0.1250 (   338 PWs)   bands (ev):

    -5.6373   4.3720   5.6806   5.6806

          k =-0.1250 0.3750 0.1250 (   353 PWs)   bands (ev):

    -5.1120   2.7544   4.6759   4.7383

          k = 0.1250-0.3750 0.3750 (   352 PWs)   bands (ev):

    -4.6154   1.3830   3.7032   5.1991

          k = 0.1250 0.1250 0.3750 (   353 PWs)   bands (ev):

    -5.1120   2.7544   4.6759   4.7383

          k = 0.3750-0.1250 0.3750 (   352 PWs)   bands (ev):

    -4.6154   1.3830   3.7032   5.1991

          k = 0.3750 0.3750 0.3750 (   353 PWs)   bands (ev):

    -4.1854   0.1006   4.8935   4.8935

          k = 0.3750 0.1250 0.3750 (   352 PWs)   bands (ev):

    -4.6154   1.3830   3.7032   5.1991

          k = 0.3750 0.6250 0.3750 (   361 PWs)   bands (ev):

    -3.4828  -0.6853   3.7206   4.4310

          k =-0.6250 0.3750-0.3750 (   361 PWs)   bands (ev):

    -3.4828  -0.6853   3.7206   4.4310

          k =-0.6250 0.8750-0.3750 (   357 PWs)   bands (ev):

    -3.6716   0.1762   2.7180   4.0794

          k =-0.3750 0.6250-0.3750 (   361 PWs)   bands (ev):

    -3.4828  -0.6853   3.7206   4.4310

          k =-0.3750 1.1250-0.3750 (   361 PWs)   bands (ev):

    -2.9885  -0.6077   2.0683   4.1160

          k =-0.3750-0.6250-0.3750 (   361 PWs)   bands (ev):

    -3.4828  -0.6853   3.7206   4.4310

          k =-0.3750-0.1250-0.3750 (   352 PWs)   bands (ev):

    -4.6154   1.3830   3.7032   5.1991

          k =-0.3750 0.1250-0.1250 (   353 PWs)   bands (ev):

    -5.1120   2.7544   4.6759   4.7383

          k =-0.3750 0.6250-0.1250 (   357 PWs)   bands (ev):

    -3.6716   0.1762   2.7180   4.0794

          k =-0.1250 0.3750-0.1250 (   353 PWs)   bands (ev):

    -5.1120   2.7544   4.6759   4.7383

          k =-0.1250 0.8750-0.1250 (   358 PWs)   bands (ev):

    -2.6183  -0.8183   2.6169   3.3387

          k =-0.1250-0.3750-0.1250 (   353 PWs)   bands (ev):

    -5.1120   2.7544   4.6759   4.7383

          k =-0.1250 0.1250-0.1250 (   338 PWs)   bands (ev):

    -5.6373   4.3720   5.6806   5.6806

          k =-0.1250-0.6250 0.1250 (   351 PWs)   bands (ev):

    -4.0846   1.0429   3.3569   3.8044

          k =-0.1250-0.1250 0.1250 (   338 PWs)   bands (ev):

    -5.6373   4.3720   5.6806   5.6806

          k = 0.6250-0.1250-0.1250 (   351 PWs)   bands (ev):

    -4.0846   1.0429   3.3569   3.8044

          k = 0.6250 0.3750-0.1250 (   357 PWs)   bands (ev):

    -3.6716   0.1762   2.7180   4.0794

          k = 0.6250 0.1250 0.1250 (   351 PWs)   bands (ev):

    -4.0846   1.0429   3.3569   3.8044

          k = 0.6250 0.6250 0.1250 (   361 PWs)   bands (ev):

    -2.9885  -0.6077   2.0683   4.1160

          k =-0.8750 0.1250-0.6250 (   361 PWs)   bands (ev):

    -2.4527  -0.9150   2.0123   3.0812

          k =-0.8750 0.6250-0.6250 (   352 PWs)   bands (ev):

    -4.6154   1.3830   3.7032   5.1991

          k =-0.1250 0.6250-0.8750 (   361 PWs)   bands (ev):

    -2.4527  -0.9150   2.0123   3.0812

          k =-0.1250 1.1250-0.8750 (   358 PWs)   bands (ev):

    -2.6183  -0.8183   2.6169   3.3387

          k =-0.1250 0.8750-0.6250 (   361 PWs)   bands (ev):

    -2.4527  -0.9150   2.0123   3.0812

          k =-0.1250 1.3750-0.6250 (   361 PWs)   bands (ev):

    -2.9885  -0.6077   2.0683   4.1160

          k =-0.1250-0.8750-0.6250 (   361 PWs)   bands (ev):

    -2.4527  -0.9150   2.0123   3.0812

          k =-0.1250-0.3750-0.6250 (   357 PWs)   bands (ev):

    -3.6716   0.1762   2.7180   4.0794

          k = 0.8750-0.6250 0.1250 (   361 PWs)   bands (ev):

    -2.4527  -0.9150   2.0123   3.0812

          k = 0.8750-0.1250 0.1250 (   358 PWs)   bands (ev):

    -2.6183  -0.8183   2.6169   3.3387

          k =-0.6250-0.1250-0.3750 (   357 PWs)   bands (ev):

    -3.6716   0.1762   2.7180   4.0794

          k =-0.6250 0.3750-0.3750 (   361 PWs)   bands (ev):

    -3.4828  -0.6853   3.7206   4.4310

          k = 0.1250 0.3750-0.6250 (   357 PWs)   bands (ev):

    -3.6716   0.1762   2.7180   4.0794

          k = 0.1250 0.8750-0.6250 (   361 PWs)   bands (ev):

    -2.4527  -0.9150   2.0123   3.0812

          k = 0.1250 0.6250-0.3750 (   357 PWs)   bands (ev):

    -3.6716   0.1762   2.7180   4.0794

          k = 0.1250 1.1250-0.3750 (   361 PWs)   bands (ev):

    -2.4527  -0.9150   2.0123   3.0812

          k = 0.1250-0.6250-0.3750 (   357 PWs)   bands (ev):

    -3.6716   0.1762   2.7180   4.0794

          k = 0.1250-0.1250-0.3750 (   353 PWs)   bands (ev):

    -5.1120   2.7544   4.6759   4.7383

          k = 0.6250-0.3750-0.1250 (   357 PWs)   bands (ev):

    -3.6716   0.1762   2.7180   4.0794

          k = 0.6250 0.1250-0.1250 (   351 PWs)   bands (ev):

    -4.0846   1.0429   3.3569   3.8044

          k =-0.1250 0.8750 0.1250 (   358 PWs)   bands (ev):

    -2.6183  -0.8183   2.6169   3.3387

          k =-0.1250 1.3750 0.1250 (   351 PWs)   bands (ev):

    -4.0846   1.0429   3.3569   3.8044

          k =-0.8750-0.1250-0.1250 (   358 PWs)   bands (ev):

    -2.6183  -0.8183   2.6169   3.3387

          k =-0.8750 0.3750-0.1250 (   361 PWs)   bands (ev):

    -2.4527  -0.9150   2.0123   3.0812

          k =-0.8750 0.1250 0.1250 (   358 PWs)   bands (ev):

    -2.6183  -0.8183   2.6169   3.3387

          k =-0.8750 0.6250 0.1250 (   361 PWs)   bands (ev):

    -2.4527  -0.9150   2.0123   3.0812

          k =-0.3750-0.3750 0.3750 (   353 PWs)   bands (ev):

    -4.1854   0.1006   4.8935   4.8935

          k =-0.3750 0.1250 0.3750 (   352 PWs)   bands (ev):

    -4.6154   1.3830   3.7032   5.1991

          k =-1.1250 0.3750-0.3750 (   361 PWs)   bands (ev):

    -2.9885  -0.6077   2.0683   4.1160

          k =-1.1250 0.8750-0.3750 (   351 PWs)   bands (ev):

    -4.0846   1.0429   3.3569   3.8044

          k =-0.3750 1.1250-0.3750 (   361 PWs)   bands (ev):

    -2.9885  -0.6077   2.0683   4.1160

          k =-0.3750 1.6250-0.3750 (   353 PWs)   bands (ev):

    -4.1854   0.1006   4.8935   4.8935

          k =-0.3750-1.1250-0.3750 (   361 PWs)   bands (ev):

    -2.9885  -0.6077   2.0683   4.1160

          k =-0.3750-0.6250-0.3750 (   361 PWs)   bands (ev):

    -3.4828  -0.6853   3.7206   4.4310

     highest occupied level (ev):     5.6806

     Writing output data file silicon.10.3403.save

                                                                                

     bravais-lattice index     =            2
     lattice parameter (alat)  =      10.3403  a.u.
     unit-cell volume          =     276.4009 (a.u.)^3
     number of atoms/cell      =            2
     number of atomic types    =            1
     kinetic-energy cut-off    =      18.0000  Ry
     charge density cut-off    =      72.0000  Ry
     convergence threshold     =      1.0E-12
     beta                      =       0.7000
     number of iterations used =            4
     Exchange-correlation      = SLA  PW   PBE  PBE ( 1  4  3  4 0 0)


     celldm(1)=   10.34030  celldm(2)=    0.00000  celldm(3)=    0.00000
     celldm(4)=    0.00000  celldm(5)=    0.00000  celldm(6)=    0.00000

     crystal axes: (cart. coord. in units of alat)
               a(1) = ( -0.5000  0.0000  0.5000 )  
               a(2) = (  0.0000  0.5000  0.5000 )  
               a(3) = ( -0.5000  0.5000  0.0000 )  

     reciprocal axes: (cart. coord. in units 2 pi/alat)
               b(1) = ( -1.0000 -1.0000  1.0000 )  
               b(2) = (  1.0000  1.0000  1.0000 )  
               b(3) = ( -1.0000  1.0000 -1.0000 )  


     Atoms inside the unit cell: 

     Cartesian axes

     site n.  atom      mass           positions (alat units)
        1     Si  28.0860   tau(    1) = (    0.00000    0.00000    0.00000  )
        2     Si  28.0860   tau(    2) = (    0.25000    0.25000    0.25000  )

     Computing dynamical matrix for 
                    q = (   0.0000000   0.5000000   0.0000000 )

      8 Sym.Ops. (no q -> -q+G )


     G cutoff =  195.0020  (    710 G-vectors)     FFT grid: ( 20, 20, 20)
     number of k points=    80

     PseudoPot. # 1 for Si read from file:
     /home/max/quantum_espresso/qe-6.1/pseudo/si_pbe_v1.uspp.F.UPF.txt
     MD5 check sum: a056efeee980c13900f22a371efd63c1
     Pseudo is Ultrasoft + core correction, Zval =  4.0
     Generated by new atomic code, or converted to UPF format
     Using radial grid of  899 points,  6 beta functions with: 
                l(1) =   0
                l(2) =   0
                l(3) =   1
                l(4) =   1
                l(5) =   2
                l(6) =   2
     Q(r) pseudized with  8 coefficients,  rinner =    0.900   0.900   0.900
                                                       0.900   0.900

     Mode symmetry, C_4v (4mm)  point group:


     Atomic displacements:
     There are   4 irreducible representations

     Representation     1      1 modes -A_1  G_1 D_1  To be done

     Representation     2      1 modes -B_2  G_4 D_2'  To be done

     Representation     3      2 modes -E    G_5 D_5  To be done

     Representation     4      2 modes -E    G_5 D_5  To be done



     Alpha used in Ewald sum =   0.7000
     PHONON       :    22.36s CPU        24.49s WALL



     Representation #  1 mode #   1

     Self-consistent Calculation

      iter #   1 total cpu time :    24.7 secs   av.it.:   5.8
      thresh= 1.000E-02 alpha_mix =  0.700 |ddv_scf|^2 =  2.967E-03

      iter #   2 total cpu time :    25.1 secs   av.it.:   7.7
      thresh= 5.447E-03 alpha_mix =  0.700 |ddv_scf|^2 =  3.906E-02

      iter #   3 total cpu time :    25.3 secs   av.it.:   6.7
      thresh= 1.000E-02 alpha_mix =  0.700 |ddv_scf|^2 =  1.484E-07

      iter #   4 total cpu time :    25.5 secs   av.it.:   8.1
      thresh= 3.852E-05 alpha_mix =  0.700 |ddv_scf|^2 =  1.404E-08

      iter #   5 total cpu time :    25.6 secs   av.it.:   7.7
      thresh= 1.185E-05 alpha_mix =  0.700 |ddv_scf|^2 =  7.297E-10

      iter #   6 total cpu time :    25.8 secs   av.it.:   7.9
      thresh= 2.701E-06 alpha_mix =  0.700 |ddv_scf|^2 =  3.018E-12

      iter #   7 total cpu time :    26.0 secs   av.it.:   7.9
      thresh= 1.737E-07 alpha_mix =  0.700 |ddv_scf|^2 =  5.700E-13

     End of self-consistent calculation

     Convergence has been achieved 


     Representation #  2 mode #   2

     Self-consistent Calculation

      iter #   1 total cpu time :    26.1 secs   av.it.:   4.9
      thresh= 1.000E-02 alpha_mix =  0.700 |ddv_scf|^2 =  5.508E-06

      iter #   2 total cpu time :    26.3 secs   av.it.:   8.7
      thresh= 2.347E-04 alpha_mix =  0.700 |ddv_scf|^2 =  1.339E-06

      iter #   3 total cpu time :    26.5 secs   av.it.:   8.5
      thresh= 1.157E-04 alpha_mix =  0.700 |ddv_scf|^2 =  4.263E-08

      iter #   4 total cpu time :    26.8 secs   av.it.:   8.2
      thresh= 2.065E-05 alpha_mix =  0.700 |ddv_scf|^2 =  7.150E-10

      iter #   5 total cpu time :    27.2 secs   av.it.:   8.6
      thresh= 2.674E-06 alpha_mix =  0.700 |ddv_scf|^2 =  6.840E-12

      iter #   6 total cpu time :    27.4 secs   av.it.:   8.0
      thresh= 2.615E-07 alpha_mix =  0.700 |ddv_scf|^2 =  7.389E-14

     End of self-consistent calculation

     Convergence has been achieved 


     Representation #  3 modes #   3  4

     Self-consistent Calculation

      iter #   1 total cpu time :    27.7 secs   av.it.:   5.0
      thresh= 1.000E-02 alpha_mix =  0.700 |ddv_scf|^2 =  1.022E-06

      iter #   2 total cpu time :    28.1 secs   av.it.:   9.7
      thresh= 1.011E-04 alpha_mix =  0.700 |ddv_scf|^2 =  1.269E-07

      iter #   3 total cpu time :    28.5 secs   av.it.:   9.5
      thresh= 3.562E-05 alpha_mix =  0.700 |ddv_scf|^2 =  6.696E-09

      iter #   4 total cpu time :    29.3 secs   av.it.:   8.8
      thresh= 8.183E-06 alpha_mix =  0.700 |ddv_scf|^2 =  9.518E-12

      iter #   5 total cpu time :    29.6 secs   av.it.:   9.1
      thresh= 3.085E-07 alpha_mix =  0.700 |ddv_scf|^2 =  2.987E-13

     End of self-consistent calculation

     Convergence has been achieved 


     Representation #  4 modes #   5  6

     Self-consistent Calculation

      iter #   1 total cpu time :    29.9 secs   av.it.:   5.0
      thresh= 1.000E-02 alpha_mix =  0.700 |ddv_scf|^2 =  9.382E-07

      iter #   2 total cpu time :    30.3 secs   av.it.:   9.8
      thresh= 9.686E-05 alpha_mix =  0.700 |ddv_scf|^2 =  1.187E-07

      iter #   3 total cpu time :    31.0 secs   av.it.:   9.4
      thresh= 3.446E-05 alpha_mix =  0.700 |ddv_scf|^2 =  7.001E-09

      iter #   4 total cpu time :    31.4 secs   av.it.:   8.9
      thresh= 8.367E-06 alpha_mix =  0.700 |ddv_scf|^2 =  1.480E-11

      iter #   5 total cpu time :    31.8 secs   av.it.:   9.2
      thresh= 3.848E-07 alpha_mix =  0.700 |ddv_scf|^2 =  4.419E-14

     End of self-consistent calculation

     Convergence has been achieved 

     Number of q in the star =    6
     List of q in the star:
          1   0.000000000   0.500000000   0.000000000
          2   0.000000000  -0.500000000   0.000000000
          3   0.500000000   0.000000000   0.000000000
          4   0.000000000   0.000000000   0.500000000
          5   0.000000000   0.000000000  -0.500000000
          6  -0.500000000   0.000000000   0.000000000

     Diagonalizing the dynamical matrix

     q = (    0.000000000   0.500000000   0.000000000 ) 

 **************************************************************************
     freq (    1) =       4.297554 [THz] =     143.350965 [cm-1]
     freq (    2) =       4.297554 [THz] =     143.350965 [cm-1]
     freq (    3) =       7.153228 [THz] =     238.606012 [cm-1]
     freq (    4) =      14.048001 [THz] =     468.590888 [cm-1]
     freq (    5) =      14.048001 [THz] =     468.590888 [cm-1]
     freq (    6) =      14.675555 [THz] =     489.523820 [cm-1]
 **************************************************************************

     Mode symmetry, C_4v (4mm)  point group:

     freq (  1 -  2) =        143.4  [cm-1]   --> E    G_5 D_5       
     freq (  3 -  3) =        238.6  [cm-1]   --> A_1  G_1 D_1       
     freq (  4 -  5) =        468.6  [cm-1]   --> E    G_5 D_5       
     freq (  6 -  6) =        489.5  [cm-1]   --> B_2  G_4 D_2'      

     Calculation of q =    0.7500000  -0.2500000   0.7500000

   Info: using nr1, nr2, nr3 values from input

   Info: using nr1, nr2, nr3 values from input

     Parallelization info
     --------------------
     sticks:   dense  smooth     PW     G-vecs:    dense   smooth      PW
     Min          64      64     30                  709      709     216
     Max          67      67     31                  710      710     218
     Sum         265     265    121                 2837     2837     869



     bravais-lattice index     =            2
     lattice parameter (alat)  =      10.3403  a.u.
     unit-cell volume          =     276.4009 (a.u.)^3
     number of atoms/cell      =            2
     number of atomic types    =            1
     number of electrons       =         8.00
     number of Kohn-Sham states=            4
     kinetic-energy cutoff     =      18.0000  Ry
     charge density cutoff     =      72.0000  Ry
     Exchange-correlation      = SLA  PW   PBE  PBE ( 1  4  3  4 0 0)

     celldm(1)=  10.340300  celldm(2)=   0.000000  celldm(3)=   0.000000
     celldm(4)=   0.000000  celldm(5)=   0.000000  celldm(6)=   0.000000

     crystal axes: (cart. coord. in units of alat)
               a(1) = (  -0.500000   0.000000   0.500000 )  
               a(2) = (   0.000000   0.500000   0.500000 )  
               a(3) = (  -0.500000   0.500000   0.000000 )  

     reciprocal axes: (cart. coord. in units 2 pi/alat)
               b(1) = ( -1.000000 -1.000000  1.000000 )  
               b(2) = (  1.000000  1.000000  1.000000 )  
               b(3) = ( -1.000000  1.000000 -1.000000 )  


     PseudoPot. # 1 for Si read from file:
     /home/max/quantum_espresso/qe-6.1/pseudo/si_pbe_v1.uspp.F.UPF.txt
     MD5 check sum: a056efeee980c13900f22a371efd63c1
     Pseudo is Ultrasoft + core correction, Zval =  4.0
     Generated by new atomic code, or converted to UPF format
     Using radial grid of  899 points,  6 beta functions with: 
                l(1) =   0
                l(2) =   0
                l(3) =   1
                l(4) =   1
                l(5) =   2
                l(6) =   2
     Q(r) pseudized with  8 coefficients,  rinner =    0.900   0.900   0.900
                                                       0.900   0.900

     atomic species   valence    mass     pseudopotential
        Si             4.00    28.08600     Si( 1.00)

     48 Sym. Ops., with inversion, found



   Cartesian axes

     site n.     atom                  positions (alat units)
         1           Si  tau(   1) = (   0.0000000   0.0000000   0.0000000  )
         2           Si  tau(   2) = (   0.2500000   0.2500000   0.2500000  )

     number of k points=   288

     Number of k-points >= 100: set verbosity='high' to print them.

     Dense  grid:     2837 G-vectors     FFT dimensions: (  20,  20,  20)

     Estimated max dynamical RAM per process >       0.33MB

     Estimated total allocated dynamical RAM >       1.32MB

     Check: negative/imaginary core charge=   -0.000006    0.000000

     The potential is recalculated from file :
     ./_ph0/silicon.10.3403.save/charge-density.dat

     Starting wfc are    8 atomic wfcs

     Band Structure Calculation
     Davidson diagonalization with overlap

     ethr =  1.25E-10,  avg # of iterations = 11.6

     total cpu time spent up to now is        4.4 secs

     End of band structure calculation

     Number of k-points >= 100: set verbosity='high' to print the bands.

     highest occupied level (ev):     5.6806

     Writing output data file silicon.10.3403.save

                                                                                

     bravais-lattice index     =            2
     lattice parameter (alat)  =      10.3403  a.u.
     unit-cell volume          =     276.4009 (a.u.)^3
     number of atoms/cell      =            2
     number of atomic types    =            1
     kinetic-energy cut-off    =      18.0000  Ry
     charge density cut-off    =      72.0000  Ry
     convergence threshold     =      1.0E-12
     beta                      =       0.7000
     number of iterations used =            4
     Exchange-correlation      = SLA  PW   PBE  PBE ( 1  4  3  4 0 0)


     celldm(1)=   10.34030  celldm(2)=    0.00000  celldm(3)=    0.00000
     celldm(4)=    0.00000  celldm(5)=    0.00000  celldm(6)=    0.00000

     crystal axes: (cart. coord. in units of alat)
               a(1) = ( -0.5000  0.0000  0.5000 )  
               a(2) = (  0.0000  0.5000  0.5000 )  
               a(3) = ( -0.5000  0.5000  0.0000 )  

     reciprocal axes: (cart. coord. in units 2 pi/alat)
               b(1) = ( -1.0000 -1.0000  1.0000 )  
               b(2) = (  1.0000  1.0000  1.0000 )  
               b(3) = ( -1.0000  1.0000 -1.0000 )  


     Atoms inside the unit cell: 

     Cartesian axes

     site n.  atom      mass           positions (alat units)
        1     Si  28.0860   tau(    1) = (    0.00000    0.00000    0.00000  )
        2     Si  28.0860   tau(    2) = (    0.25000    0.25000    0.25000  )

     Computing dynamical matrix for 
                    q = (   0.7500000  -0.2500000   0.7500000 )

      2 Sym.Ops. (no q -> -q+G )


     G cutoff =  195.0020  (    710 G-vectors)     FFT grid: ( 20, 20, 20)
     number of k points=   288

     PseudoPot. # 1 for Si read from file:
     /home/max/quantum_espresso/qe-6.1/pseudo/si_pbe_v1.uspp.F.UPF.txt
     MD5 check sum: a056efeee980c13900f22a371efd63c1
     Pseudo is Ultrasoft + core correction, Zval =  4.0
     Generated by new atomic code, or converted to UPF format
     Using radial grid of  899 points,  6 beta functions with: 
                l(1) =   0
                l(2) =   0
                l(3) =   1
                l(4) =   1
                l(5) =   2
                l(6) =   2
     Q(r) pseudized with  8 coefficients,  rinner =    0.900   0.900   0.900
                                                       0.900   0.900

     Mode symmetry, C_s (m)     point group:


     Atomic displacements:
     There are   6 irreducible representations

     Representation     1      1 modes -A'  To be done

     Representation     2      1 modes -A'  To be done

     Representation     3      1 modes -A'  To be done

     Representation     4      1 modes -A'  To be done

     Representation     5      1 modes -A''  To be done

     Representation     6      1 modes -A''  To be done



     Alpha used in Ewald sum =   0.7000
     PHONON       :    31.97s CPU        34.98s WALL



     Representation #  1 mode #   1

     Self-consistent Calculation

      iter #   1 total cpu time :    35.6 secs   av.it.:   5.3
      thresh= 1.000E-02 alpha_mix =  0.700 |ddv_scf|^2 =  6.124E-05

      iter #   2 total cpu time :    36.2 secs   av.it.:   8.9
      thresh= 7.826E-04 alpha_mix =  0.700 |ddv_scf|^2 =  1.604E-04

      iter #   3 total cpu time :    37.1 secs   av.it.:   7.6
      thresh= 1.266E-03 alpha_mix =  0.700 |ddv_scf|^2 =  1.148E-06

      iter #   4 total cpu time :    37.8 secs   av.it.:   8.4
      thresh= 1.071E-04 alpha_mix =  0.700 |ddv_scf|^2 =  6.153E-08

      iter #   5 total cpu time :    38.4 secs   av.it.:   8.3
      thresh= 2.480E-05 alpha_mix =  0.700 |ddv_scf|^2 =  7.541E-09

      iter #   6 total cpu time :    39.4 secs   av.it.:   8.5
      thresh= 8.684E-06 alpha_mix =  0.700 |ddv_scf|^2 =  8.307E-11

      iter #   7 total cpu time :    40.1 secs   av.it.:   8.8
      thresh= 9.114E-07 alpha_mix =  0.700 |ddv_scf|^2 =  2.968E-12

      iter #   8 total cpu time :    40.9 secs   av.it.:   8.6
      thresh= 1.723E-07 alpha_mix =  0.700 |ddv_scf|^2 =  1.754E-13

     End of self-consistent calculation

     Convergence has been achieved 


     Representation #  2 mode #   2

     Self-consistent Calculation

      iter #   1 total cpu time :    41.6 secs   av.it.:   5.4
      thresh= 1.000E-02 alpha_mix =  0.700 |ddv_scf|^2 =  1.091E-04

      iter #   2 total cpu time :    42.2 secs   av.it.:   8.7
      thresh= 1.044E-03 alpha_mix =  0.700 |ddv_scf|^2 =  3.109E-04

      iter #   3 total cpu time :    43.1 secs   av.it.:   7.4
      thresh= 1.763E-03 alpha_mix =  0.700 |ddv_scf|^2 =  7.931E-07

      iter #   4 total cpu time :    43.7 secs   av.it.:   8.6
      thresh= 8.906E-05 alpha_mix =  0.700 |ddv_scf|^2 =  6.002E-08

      iter #   5 total cpu time :    44.4 secs   av.it.:   8.2
      thresh= 2.450E-05 alpha_mix =  0.700 |ddv_scf|^2 =  1.070E-08

      iter #   6 total cpu time :    45.3 secs   av.it.:   8.5
      thresh= 1.034E-05 alpha_mix =  0.700 |ddv_scf|^2 =  8.347E-11

      iter #   7 total cpu time :    46.0 secs   av.it.:   8.7
      thresh= 9.136E-07 alpha_mix =  0.700 |ddv_scf|^2 =  2.713E-12

      iter #   8 total cpu time :    46.6 secs   av.it.:   8.7
      thresh= 1.647E-07 alpha_mix =  0.700 |ddv_scf|^2 =  7.773E-13

     End of self-consistent calculation

     Convergence has been achieved 


     Representation #  3 mode #   3

     Self-consistent Calculation

      iter #   1 total cpu time :    47.5 secs   av.it.:   5.3
      thresh= 1.000E-02 alpha_mix =  0.700 |ddv_scf|^2 =  8.556E-05

      iter #   2 total cpu time :    48.2 secs   av.it.:   8.8
      thresh= 9.250E-04 alpha_mix =  0.700 |ddv_scf|^2 =  2.281E-04

      iter #   3 total cpu time :    49.1 secs   av.it.:   7.4
      thresh= 1.510E-03 alpha_mix =  0.700 |ddv_scf|^2 =  1.352E-06

      iter #   4 total cpu time :    49.7 secs   av.it.:   8.2
      thresh= 1.163E-04 alpha_mix =  0.700 |ddv_scf|^2 =  6.165E-08

      iter #   5 total cpu time :    50.3 secs   av.it.:   8.4
      thresh= 2.483E-05 alpha_mix =  0.700 |ddv_scf|^2 =  1.100E-08

      iter #   6 total cpu time :    51.3 secs   av.it.:   8.5
      thresh= 1.049E-05 alpha_mix =  0.700 |ddv_scf|^2 =  4.786E-11

      iter #   7 total cpu time :    51.9 secs   av.it.:   8.7
      thresh= 6.918E-07 alpha_mix =  0.700 |ddv_scf|^2 =  1.729E-12

      iter #   8 total cpu time :    52.6 secs   av.it.:   8.8
      thresh= 1.315E-07 alpha_mix =  0.700 |ddv_scf|^2 =  3.115E-13

     End of self-consistent calculation

     Convergence has been achieved 


     Representation #  4 mode #   4

     Self-consistent Calculation

      iter #   1 total cpu time :    53.5 secs   av.it.:   5.2
      thresh= 1.000E-02 alpha_mix =  0.700 |ddv_scf|^2 =  3.778E-05

      iter #   2 total cpu time :    54.1 secs   av.it.:   8.9
[...]
        k(   59) = (  -0.8750000   0.1250000  -0.1250000), wk =   0.0625000
        k(   60) = (  -1.3750000  -0.8750000  -0.1250000), wk =   0.0000000
        k(   61) = (  -1.1250000   0.3750000  -0.3750000), wk =   0.0625000
        k(   62) = (  -1.6250000  -0.6250000  -0.3750000), wk =   0.0000000
        k(   63) = (  -0.3750000   0.3750000   1.1250000), wk =   0.0625000
        k(   64) = (  -0.8750000  -0.6250000   1.1250000), wk =   0.0000000

     Dense  grid:     2837 G-vectors     FFT dimensions: (  20,  20,  20)

     Estimated max dynamical RAM per process >       0.33MB

     Estimated total allocated dynamical RAM >       1.32MB

     Check: negative/imaginary core charge=   -0.000006    0.000000

     The potential is recalculated from file :
     ./_ph0/silicon.10.3403.save/charge-density.dat

     Starting wfc are    8 atomic wfcs

     Band Structure Calculation
     Davidson diagonalization with overlap

     ethr =  1.25E-10,  avg # of iterations = 11.6

     total cpu time spent up to now is        6.6 secs

     End of band structure calculation

          k =-0.1250 0.1250 0.1250 (   338 PWs)   bands (ev):

    -5.6373   4.3720   5.6806   5.6806

          k =-0.6250-0.8750 0.1250 (   361 PWs)   bands (ev):

    -2.4527  -0.9150   2.0123   3.0812

          k =-0.3750 0.3750-0.1250 (   352 PWs)   bands (ev):

    -4.6154   1.3830   3.7032   5.1991

          k =-0.8750-0.6250-0.1250 (   361 PWs)   bands (ev):

    -2.4527  -0.9150   2.0123   3.0812

          k = 0.3750-0.3750 0.6250 (   361 PWs)   bands (ev):

    -3.4828  -0.6853   3.7206   4.4310

          k =-0.1250-1.3750 0.6250 (   361 PWs)   bands (ev):

    -2.9885  -0.6077   2.0683   4.1160

          k = 0.1250-0.1250 0.3750 (   353 PWs)   bands (ev):

    -5.1120   2.7544   4.6759   4.7383

          k =-0.3750-1.1250 0.3750 (   361 PWs)   bands (ev):

    -2.9885  -0.6077   2.0683   4.1160

          k =-0.1250 0.6250 0.1250 (   351 PWs)   bands (ev):

    -4.0846   1.0429   3.3569   3.8044

          k =-0.6250-0.3750 0.1250 (   357 PWs)   bands (ev):

    -3.6716   0.1762   2.7180   4.0794

          k = 0.6250-0.1250 0.8750 (   361 PWs)   bands (ev):

    -2.4527  -0.9150   2.0123   3.0812

          k = 0.1250-1.1250 0.8750 (   358 PWs)   bands (ev):

    -2.6183  -0.8183   2.6169   3.3387

          k = 0.3750 0.1250 0.6250 (   357 PWs)   bands (ev):

    -3.6716   0.1762   2.7180   4.0794

          k =-0.1250-0.8750 0.6250 (   361 PWs)   bands (ev):

    -2.4527  -0.9150   2.0123   3.0812

          k =-0.1250-0.8750 0.1250 (   358 PWs)   bands (ev):

    -2.6183  -0.8183   2.6169   3.3387

          k =-0.6250-1.8750 0.1250 (   351 PWs)   bands (ev):

    -4.0846   1.0429   3.3569   3.8044

          k =-0.3750 0.3750 0.3750 (   353 PWs)   bands (ev):

    -4.1854   0.1006   4.8935   4.8935

          k =-0.8750-0.6250 0.3750 (   357 PWs)   bands (ev):

    -3.6716   0.1762   2.7180   4.0794

          k = 0.3750-0.3750 1.1250 (   361 PWs)   bands (ev):

    -2.9885  -0.6077   2.0683   4.1160

          k =-0.1250-1.3750 1.1250 (   361 PWs)   bands (ev):

    -2.4527  -0.9150   2.0123   3.0812

          k = 0.1250-0.3750 0.3750 (   352 PWs)   bands (ev):

    -4.6154   1.3830   3.7032   5.1991

          k =-0.3750-1.3750 0.3750 (   361 PWs)   bands (ev):

    -3.4828  -0.6853   3.7206   4.4310

          k = 0.3750-0.3750-0.1250 (   352 PWs)   bands (ev):

    -4.6154   1.3830   3.7032   5.1991

          k =-0.1250-1.3750-0.1250 (   351 PWs)   bands (ev):

    -4.0846   1.0429   3.3569   3.8044

          k =-0.6250 0.3750-0.3750 (   361 PWs)   bands (ev):

    -3.4828  -0.6853   3.7206   4.4310

          k =-1.1250-0.6250-0.3750 (   357 PWs)   bands (ev):

    -3.6716   0.1762   2.7180   4.0794

          k =-0.3750 0.3750 0.6250 (   361 PWs)   bands (ev):

    -3.4828  -0.6853   3.7206   4.4310

          k =-0.8750-0.6250 0.6250 (   352 PWs)   bands (ev):

    -4.6154   1.3830   3.7032   5.1991

          k =-0.3750 0.1250-0.1250 (   353 PWs)   bands (ev):

    -5.1120   2.7544   4.6759   4.7383

          k =-0.8750-0.8750-0.1250 (   358 PWs)   bands (ev):

    -2.6183  -0.8183   2.6169   3.3387

          k =-0.1250 0.1250 0.3750 (   353 PWs)   bands (ev):

    -5.1120   2.7544   4.6759   4.7383

          k =-0.6250-0.8750 0.3750 (   357 PWs)   bands (ev):

    -3.6716   0.1762   2.7180   4.0794

          k = 0.1250 0.6250-0.1250 (   351 PWs)   bands (ev):

    -4.0846   1.0429   3.3569   3.8044

          k =-0.3750-0.3750-0.1250 (   352 PWs)   bands (ev):

    -4.6154   1.3830   3.7032   5.1991

          k = 0.6250 0.1250-0.1250 (   351 PWs)   bands (ev):

    -4.0846   1.0429   3.3569   3.8044

          k = 0.1250-0.8750-0.1250 (   358 PWs)   bands (ev):

    -2.6183  -0.8183   2.6169   3.3387

          k =-0.8750 0.1250-0.6250 (   361 PWs)   bands (ev):

    -2.4527  -0.9150   2.0123   3.0812

          k =-1.3750-0.8750-0.6250 (   352 PWs)   bands (ev):

    -4.6154   1.3830   3.7032   5.1991

          k = 0.8750-0.1250 0.6250 (   361 PWs)   bands (ev):

    -2.4527  -0.9150   2.0123   3.0812

          k = 0.3750-1.1250 0.6250 (   357 PWs)   bands (ev):

    -3.6716   0.1762   2.7180   4.0794

          k =-0.6250 0.1250 0.8750 (   361 PWs)   bands (ev):

    -2.4527  -0.9150   2.0123   3.0812

          k =-1.1250-0.8750 0.8750 (   338 PWs)   bands (ev):

    -5.6373   4.3720   5.6806   5.6806

          k =-0.1250 0.8750 0.6250 (   361 PWs)   bands (ev):

    -2.4527  -0.9150   2.0123   3.0812

          k =-0.6250-0.1250 0.6250 (   361 PWs)   bands (ev):

    -2.9885  -0.6077   2.0683   4.1160

          k = 0.1250 0.8750-0.6250 (   361 PWs)   bands (ev):

    -2.4527  -0.9150   2.0123   3.0812

          k =-0.3750-0.1250-0.6250 (   357 PWs)   bands (ev):

    -3.6716   0.1762   2.7180   4.0794

          k =-0.6250-0.1250-0.3750 (   357 PWs)   bands (ev):

    -3.6716   0.1762   2.7180   4.0794

          k =-1.1250-1.1250-0.3750 (   351 PWs)   bands (ev):

    -4.0846   1.0429   3.3569   3.8044

          k = 0.6250 0.1250 0.3750 (   357 PWs)   bands (ev):

    -3.6716   0.1762   2.7180   4.0794

          k = 0.1250-0.8750 0.3750 (   361 PWs)   bands (ev):

    -2.4527  -0.9150   2.0123   3.0812

          k =-0.3750-0.1250 0.6250 (   357 PWs)   bands (ev):

    -3.6716   0.1762   2.7180   4.0794

          k =-0.8750-1.1250 0.6250 (   353 PWs)   bands (ev):

    -5.1120   2.7544   4.6759   4.7383

          k = 0.1250 0.6250 0.3750 (   357 PWs)   bands (ev):

    -3.6716   0.1762   2.7180   4.0794

          k =-0.3750-0.3750 0.3750 (   353 PWs)   bands (ev):

    -4.1854   0.1006   4.8935   4.8935

          k =-0.1250 0.6250-0.3750 (   357 PWs)   bands (ev):

    -3.6716   0.1762   2.7180   4.0794

          k =-0.6250-0.3750-0.3750 (   361 PWs)   bands (ev):

    -3.4828  -0.6853   3.7206   4.4310

          k = 0.1250-0.8750-0.1250 (   358 PWs)   bands (ev):

    -2.6183  -0.8183   2.6169   3.3387

          k =-0.3750-1.8750-0.1250 (   353 PWs)   bands (ev):

    -5.1120   2.7544   4.6759   4.7383

          k =-0.8750 0.1250-0.1250 (   358 PWs)   bands (ev):

    -2.6183  -0.8183   2.6169   3.3387

          k =-1.3750-0.8750-0.1250 (   361 PWs)   bands (ev):

    -2.4527  -0.9150   2.0123   3.0812

          k =-1.1250 0.3750-0.3750 (   361 PWs)   bands (ev):

    -2.9885  -0.6077   2.0683   4.1160

          k =-1.6250-0.6250-0.3750 (   361 PWs)   bands (ev):

    -3.4828  -0.6853   3.7206   4.4310

          k =-0.3750 0.3750 1.1250 (   361 PWs)   bands (ev):

    -2.9885  -0.6077   2.0683   4.1160

          k =-0.8750-0.6250 1.1250 (   353 PWs)   bands (ev):

    -5.1120   2.7544   4.6759   4.7383

     highest occupied level (ev):     5.6806

     Writing output data file silicon.10.3403.save

                                                                                

     bravais-lattice index     =            2
     lattice parameter (alat)  =      10.3403  a.u.
     unit-cell volume          =     276.4009 (a.u.)^3
     number of atoms/cell      =            2
     number of atomic types    =            1
     kinetic-energy cut-off    =      18.0000  Ry
     charge density cut-off    =      72.0000  Ry
     convergence threshold     =      1.0E-12
     beta                      =       0.7000
     number of iterations used =            4
     Exchange-correlation      = SLA  PW   PBE  PBE ( 1  4  3  4 0 0)


     celldm(1)=   10.34030  celldm(2)=    0.00000  celldm(3)=    0.00000
     celldm(4)=    0.00000  celldm(5)=    0.00000  celldm(6)=    0.00000

     crystal axes: (cart. coord. in units of alat)
               a(1) = ( -0.5000  0.0000  0.5000 )  
               a(2) = (  0.0000  0.5000  0.5000 )  
               a(3) = ( -0.5000  0.5000  0.0000 )  

     reciprocal axes: (cart. coord. in units 2 pi/alat)
               b(1) = ( -1.0000 -1.0000  1.0000 )  
               b(2) = (  1.0000  1.0000  1.0000 )  
               b(3) = ( -1.0000  1.0000 -1.0000 )  


     Atoms inside the unit cell: 

     Cartesian axes

     site n.  atom      mass           positions (alat units)
        1     Si  28.0860   tau(    1) = (    0.00000    0.00000    0.00000  )
        2     Si  28.0860   tau(    2) = (    0.25000    0.25000    0.25000  )

     Computing dynamical matrix for 
                    q = (  -0.5000000  -1.0000000   0.0000000 )

      8 Sym.Ops. (no q -> -q+G )


     G cutoff =  195.0020  (    710 G-vectors)     FFT grid: ( 20, 20, 20)
     number of k points=    64

     PseudoPot. # 1 for Si read from file:
     /home/max/quantum_espresso/qe-6.1/pseudo/si_pbe_v1.uspp.F.UPF.txt
     MD5 check sum: a056efeee980c13900f22a371efd63c1
     Pseudo is Ultrasoft + core correction, Zval =  4.0
     Generated by new atomic code, or converted to UPF format
     Using radial grid of  899 points,  6 beta functions with: 
                l(1) =   0
                l(2) =   0
                l(3) =   1
                l(4) =   1
                l(5) =   2
                l(6) =   2
     Q(r) pseudized with  8 coefficients,  rinner =    0.900   0.900   0.900
                                                       0.900   0.900


     Atomic displacements:
     There are   3 irreducible representations

     Representation     1      2 modes -  To be done

     Representation     2      2 modes -  To be done

     Representation     3      2 modes -  To be done



     Alpha used in Ewald sum =   0.7000
     PHONON       :  1m17.15s CPU     1m23.96s WALL



     Representation #  1 modes #   1  2

     Self-consistent Calculation

      iter #   1 total cpu time :    84.2 secs   av.it.:   5.3
      thresh= 1.000E-02 alpha_mix =  0.700 |ddv_scf|^2 =  6.368E-06

      iter #   2 total cpu time :    84.5 secs   av.it.:   9.9
      thresh= 2.523E-04 alpha_mix =  0.700 |ddv_scf|^2 =  3.437E-06

      iter #   3 total cpu time :    85.0 secs   av.it.:   9.2
      thresh= 1.854E-04 alpha_mix =  0.700 |ddv_scf|^2 =  9.055E-09

      iter #   4 total cpu time :    85.3 secs   av.it.:   9.1
      thresh= 9.516E-06 alpha_mix =  0.700 |ddv_scf|^2 =  1.955E-11

      iter #   5 total cpu time :    85.6 secs   av.it.:   9.2
      thresh= 4.422E-07 alpha_mix =  0.700 |ddv_scf|^2 =  5.745E-13

     End of self-consistent calculation

     Convergence has been achieved 


     Representation #  2 modes #   3  4

     Self-consistent Calculation

      iter #   1 total cpu time :    85.8 secs   av.it.:   5.2
      thresh= 1.000E-02 alpha_mix =  0.700 |ddv_scf|^2 =  9.811E-06

      iter #   2 total cpu time :    86.2 secs   av.it.:   9.9
      thresh= 3.132E-04 alpha_mix =  0.700 |ddv_scf|^2 =  1.308E-05

      iter #   3 total cpu time :    86.5 secs   av.it.:   9.1
      thresh= 3.617E-04 alpha_mix =  0.700 |ddv_scf|^2 =  1.054E-08

      iter #   4 total cpu time :    86.9 secs   av.it.:   8.8
      thresh= 1.027E-05 alpha_mix =  0.700 |ddv_scf|^2 =  8.412E-11

      iter #   5 total cpu time :    87.2 secs   av.it.:   9.4
      thresh= 9.172E-07 alpha_mix =  0.700 |ddv_scf|^2 =  1.795E-12

      iter #   6 total cpu time :    87.6 secs   av.it.:   9.1
      thresh= 1.340E-07 alpha_mix =  0.700 |ddv_scf|^2 =  1.469E-14

     End of self-consistent calculation

     Convergence has been achieved 


     Representation #  3 modes #   5  6

     Self-consistent Calculation

      iter #   1 total cpu time :    87.8 secs   av.it.:   5.1
      thresh= 1.000E-02 alpha_mix =  0.700 |ddv_scf|^2 =  2.669E-06

      iter #   2 total cpu time :    88.1 secs   av.it.:   9.7
      thresh= 1.634E-04 alpha_mix =  0.700 |ddv_scf|^2 =  1.451E-06

      iter #   3 total cpu time :    88.4 secs   av.it.:   9.0
      thresh= 1.205E-04 alpha_mix =  0.700 |ddv_scf|^2 =  8.770E-09

      iter #   4 total cpu time :    88.8 secs   av.it.:   8.7
      thresh= 9.365E-06 alpha_mix =  0.700 |ddv_scf|^2 =  4.386E-11

      iter #   5 total cpu time :    89.2 secs   av.it.:   9.1
      thresh= 6.622E-07 alpha_mix =  0.700 |ddv_scf|^2 =  6.897E-13

     End of self-consistent calculation

     Convergence has been achieved 

     Number of q in the star =    6
     List of q in the star:
          1  -0.500000000  -1.000000000   0.000000000
          2   0.000000000   1.000000000   0.500000000
          3   0.000000000  -1.000000000  -0.500000000
          4   0.500000000   1.000000000   0.000000000
          5  -1.000000000  -0.500000000   0.000000000
          6   0.000000000  -0.500000000  -1.000000000

     Diagonalizing the dynamical matrix

     q = (   -0.500000000  -1.000000000   0.000000000 ) 

 **************************************************************************
     freq (    1) =       7.324727 [THz] =     244.326595 [cm-1]
     freq (    2) =       7.324727 [THz] =     244.326595 [cm-1]
     freq (    3) =      10.951593 [THz] =     365.305827 [cm-1]
     freq (    4) =      10.951593 [THz] =     365.305827 [cm-1]
     freq (    5) =      13.880943 [THz] =     463.018406 [cm-1]
     freq (    6) =      13.880943 [THz] =     463.018406 [cm-1]
 **************************************************************************

     init_run     :      0.51s CPU      0.53s WALL (       7 calls)
     electrons    :      4.88s CPU      5.26s WALL (       7 calls)

     Called by init_run:
     wfcinit      :      0.00s CPU      0.00s WALL (       7 calls)
     potinit      :      0.02s CPU      0.02s WALL (       7 calls)

     Called by electrons:
     c_bands      :      4.88s CPU      5.24s WALL (       7 calls)
     v_of_rho     :      0.01s CPU      0.01s WALL (       8 calls)
     newd         :      0.03s CPU      0.03s WALL (       8 calls)

     Called by c_bands:
     init_us_2    :      0.67s CPU      0.72s WALL (   17588 calls)
     cegterg      :      4.15s CPU      4.45s WALL (     796 calls)

     Called by sum_band:

     Called by *egterg:
     h_psi        :     44.79s CPU     48.58s WALL (  152087 calls)
     s_psi        :      5.77s CPU      6.15s WALL (  308894 calls)
     g_psi        :      0.03s CPU      0.03s WALL (    9268 calls)
     cdiaghg      :      0.47s CPU      0.50s WALL (   10064 calls)

     Called by h_psi:
     h_psi:pot    :     44.60s CPU     48.37s WALL (  152087 calls)
     h_psi:calbec :      4.74s CPU      5.27s WALL (  152087 calls)
     vloc_psi     :     36.78s CPU     39.80s WALL (  152087 calls)
     add_vuspsi   :      2.86s CPU      3.07s WALL (  152087 calls)

     General routines
     calbec       :     10.64s CPU     11.75s WALL (  345266 calls)
     fft          :      0.41s CPU      0.43s WALL (    5239 calls)
     ffts         :      0.15s CPU      0.18s WALL (    2748 calls)
     fftw         :     42.80s CPU     46.32s WALL ( 1377716 calls)
     davcio       :      0.32s CPU      0.35s WALL (   79045 calls)

     Parallel routines
     fft_scatter  :     11.13s CPU     12.65s WALL ( 1385703 calls)

     PHONON       :  1m22.16s CPU     1m29.23s WALL

     INITIALIZATION: 
     phq_setup    :      0.05s CPU      0.05s WALL (       8 calls)
     phq_init     :      2.01s CPU      2.20s WALL (       8 calls)

     phq_init     :      2.01s CPU      2.20s WALL (       8 calls)
     set_drhoc    :      0.29s CPU      0.31s WALL (      24 calls)
     init_vloc    :      0.01s CPU      0.01s WALL (       8 calls)
     init_us_1    :      0.47s CPU      0.48s WALL (       8 calls)
     newd         :      0.03s CPU      0.03s WALL (       8 calls)
     dvanqq       :      0.23s CPU      0.23s WALL (       8 calls)
     drho         :      0.97s CPU      1.00s WALL (       8 calls)

     DYNAMICAL MATRIX:
     dynmat0      :      0.57s CPU      0.73s WALL (       8 calls)
     phqscf       :     72.02s CPU     78.31s WALL (       8 calls)
     dynmatrix    :      0.01s CPU      0.02s WALL (       8 calls)

     phqscf       :     72.02s CPU     78.31s WALL (       8 calls)
     solve_linter :     71.18s CPU     77.42s WALL (      32 calls)
     drhodv       :      0.64s CPU      0.68s WALL (      32 calls)

     dynmat0      :      0.57s CPU      0.73s WALL (       8 calls)
     dynmat_us    :      0.35s CPU      0.47s WALL (       8 calls)
     d2ionq       :      0.01s CPU      0.02s WALL (       8 calls)
     dynmatcc     :      0.21s CPU      0.23s WALL (       8 calls)

     dynmat_us    :      0.35s CPU      0.47s WALL (       8 calls)
     addusdynmat  :      0.00s CPU      0.00s WALL (       8 calls)

     phqscf       :     72.02s CPU     78.31s WALL (       8 calls)
     solve_linter :     71.18s CPU     77.42s WALL (      32 calls)

     solve_linter :     71.18s CPU     77.42s WALL (      32 calls)
     dvqpsi_us    :      1.68s CPU      1.84s WALL (    2508 calls)
     ortho        :      1.17s CPU      1.29s WALL (   15550 calls)
     cgsolve      :     55.97s CPU     61.06s WALL (   15550 calls)
     incdrhoscf   :      4.90s CPU      5.28s WALL (   15550 calls)
     addusddens   :      1.13s CPU      1.17s WALL (     228 calls)
     vpsifft      :      3.51s CPU      3.81s WALL (   12922 calls)
     dv_of_drho   :      0.21s CPU      0.22s WALL (     295 calls)
     mix_pot      :      0.05s CPU      0.06s WALL (     201 calls)
     psymdvscf    :      0.80s CPU      0.82s WALL (     196 calls)
     newdq        :      1.29s CPU      1.36s WALL (     201 calls)
     adddvscf     :      0.46s CPU      0.48s WALL (   13042 calls)
     drhodvus     :      0.00s CPU      0.00s WALL (      32 calls)

     dvqpsi_us    :      1.68s CPU      1.84s WALL (    2508 calls)
     dvqpsi_us_on :      0.81s CPU      0.88s WALL (    2508 calls)

     cgsolve      :     55.97s CPU     61.06s WALL (   15550 calls)
     ch_psi       :     53.57s CPU     58.21s WALL (  141227 calls)

     ch_psi       :     53.57s CPU     58.21s WALL (  141227 calls)
     h_psi        :     44.79s CPU     48.58s WALL (  152087 calls)
     last         :      9.13s CPU     10.04s WALL (  141227 calls)

     h_psi        :     44.79s CPU     48.58s WALL (  152087 calls)
     add_vuspsi   :      2.86s CPU      3.07s WALL (  152087 calls)

     incdrhoscf   :      4.90s CPU      5.28s WALL (   15550 calls)
     addusdbec    :      0.68s CPU      0.74s WALL (   17998 calls)

     drhodvus     :      0.00s CPU      0.00s WALL (      32 calls)

      General routines
     calbec       :     10.64s CPU     11.75s WALL (  345266 calls)
     fft          :      0.41s CPU      0.43s WALL (    5239 calls)
     ffts         :      0.15s CPU      0.18s WALL (    2748 calls)
     fftw         :     42.80s CPU     46.32s WALL ( 1377716 calls)
     davcio       :      0.32s CPU      0.35s WALL (   79045 calls)
     write_rec    :      0.20s CPU      0.22s WALL (     233 calls)


     PHONON       :  1m22.16s CPU     1m29.23s WALL


   This run was terminated on:  15:56:28   9Nov2017            

=------------------------------------------------------------------------------=
   JOB DONE.
=------------------------------------------------------------------------------=
