
     Program PHONON v.6.1 (svn rev. 13369) starts on  9Nov2017 at 17:41:44 

     This program is part of the open-source Quantum ESPRESSO suite
     for quantum simulation of materials; please cite
         "P. Giannozzi et al., J. Phys.:Condens. Matter 21 395502 (2009);
          URL http://www.quantum-espresso.org", 
     in publications or presentations arising from this work. More details at
     http://www.quantum-espresso.org/quote

     Parallel version (MPI), running on     4 processors
     R & G space division:  proc/nbgrp/npool/nimage =       4

     Reading data from directory:
     ./silicon.10.404.save

   Info: using nr1, nr2, nr3 values from input

   Info: using nr1, nr2, nr3 values from input

     IMPORTANT: XC functional enforced from input :
     Exchange-correlation      = SLA  PW   PBE  PBE ( 1  4  3  4 0 0)
     Any further DFT definition will be discarded
     Please, verify this is what you really want


     Parallelization info
     --------------------
     sticks:   dense  smooth     PW     G-vecs:    dense   smooth      PW
     Min          66      66     22                  722      722     152
     Max          67      67     23                  724      724     153
     Sum         265     265     91                 2891     2891     609


     Check: negative/imaginary core charge=   -0.000006    0.000000


     Dynamical matrices for ( 4, 4, 4)  uniform grid of q-points
     (   8q-points):
       N         xq(1)         xq(2)         xq(3) 
       1   0.000000000   0.000000000   0.000000000
       2  -0.250000000   0.250000000  -0.250000000
       3   0.500000000  -0.500000000   0.500000000
       4   0.000000000   0.500000000   0.000000000
       5   0.750000000  -0.250000000   0.750000000
       6   0.500000000   0.000000000   0.500000000
       7   0.000000000  -1.000000000   0.000000000
       8  -0.500000000  -1.000000000   0.000000000

     Calculation of q =    0.0000000   0.0000000   0.0000000

                                                                                

     bravais-lattice index     =            2
     lattice parameter (alat)  =      10.4040  a.u.
     unit-cell volume          =     281.5406 (a.u.)^3
     number of atoms/cell      =            2
     number of atomic types    =            1
     kinetic-energy cut-off    =      18.0000  Ry
     charge density cut-off    =      72.0000  Ry
     convergence threshold     =      1.0E-12
     beta                      =       0.7000
     number of iterations used =            4
     Exchange-correlation      = SLA  PW   PBE  PBE ( 1  4  3  4 0 0)


     celldm(1)=   10.40400  celldm(2)=    0.00000  celldm(3)=    0.00000
     celldm(4)=    0.00000  celldm(5)=    0.00000  celldm(6)=    0.00000

     crystal axes: (cart. coord. in units of alat)
               a(1) = ( -0.5000  0.0000  0.5000 )  
               a(2) = (  0.0000  0.5000  0.5000 )  
               a(3) = ( -0.5000  0.5000  0.0000 )  

     reciprocal axes: (cart. coord. in units 2 pi/alat)
               b(1) = ( -1.0000 -1.0000  1.0000 )  
               b(2) = (  1.0000  1.0000  1.0000 )  
               b(3) = ( -1.0000  1.0000 -1.0000 )  


     Atoms inside the unit cell: 

     Cartesian axes

     site n.  atom      mass           positions (alat units)
        1     Si  28.0860   tau(    1) = (    0.00000    0.00000    0.00000  )
        2     Si  28.0860   tau(    2) = (    0.25000    0.25000    0.25000  )

     Computing dynamical matrix for 
                    q = (   0.0000000   0.0000000   0.0000000 )

     49 Sym.Ops. (with q -> -q+G )


     G cutoff =  197.4120  (    722 G-vectors)     FFT grid: ( 20, 20, 20)
     number of k points=    10

     PseudoPot. # 1 for Si read from file:
     /home/max/quantum_espresso/qe-6.1/pseudo/si_pbe_v1.uspp.F.UPF.txt
     MD5 check sum: a056efeee980c13900f22a371efd63c1
     Pseudo is Ultrasoft + core correction, Zval =  4.0
     Generated by new atomic code, or converted to UPF format
     Using radial grid of  899 points,  6 beta functions with: 
                l(1) =   0
                l(2) =   0
                l(3) =   1
                l(4) =   1
                l(5) =   2
                l(6) =   2
     Q(r) pseudized with  8 coefficients,  rinner =    0.900   0.900   0.900
                                                       0.900   0.900

     Mode symmetry, O_h (m-3m)  point group:


     Electric field:
     Dielectric constant
     Born effective charges in two ways 


     Atomic displacements:
     There are   2 irreducible representations

     Representation     1      3 modes -T_2g G_25' G_5+  To be done

     Representation     2      3 modes -T_1u G_15  G_4-  To be done



     Alpha used in Ewald sum =   0.7000
     PHONON       :     0.40s CPU         0.41s WALL


     Electric Fields Calculation

      iter #   1 total cpu time :     1.1 secs   av.it.:   5.6
      thresh= 1.000E-02 alpha_mix =  0.700 |ddv_scf|^2 =  9.585E-07

      iter #   2 total cpu time :     1.3 secs   av.it.:   9.9
      thresh= 9.790E-05 alpha_mix =  0.700 |ddv_scf|^2 =  6.263E-08

      iter #   3 total cpu time :     1.5 secs   av.it.:   9.8
      thresh= 2.503E-05 alpha_mix =  0.700 |ddv_scf|^2 =  4.977E-09

      iter #   4 total cpu time :     1.7 secs   av.it.:   9.0
      thresh= 7.055E-06 alpha_mix =  0.700 |ddv_scf|^2 =  3.018E-11

      iter #   5 total cpu time :     1.8 secs   av.it.:   9.2
      thresh= 5.493E-07 alpha_mix =  0.700 |ddv_scf|^2 =  1.547E-14

     End of electric fields calculation

          Dielectric constant in cartesian axis 

          (      14.031233584       0.000000000       0.000000000 )
          (       0.000000000      14.031233584      -0.000000000 )
          (       0.000000000       0.000000000      14.031233584 )

          Effective charges (d Force / dE) in cartesian axis

           atom      1   Si 
      Ex  (       -0.03351       -0.00000       -0.00000 )
      Ey  (       -0.00000       -0.03351        0.00000 )
      Ez  (       -0.00000        0.00000       -0.03351 )
           atom      2   Si 
      Ex  (       -0.03351       -0.00000       -0.00000 )
      Ey  (        0.00000       -0.03351       -0.00000 )
      Ez  (        0.00000       -0.00000       -0.03351 )


     Representation #  1 modes #   1  2  3

     Self-consistent Calculation

      iter #   1 total cpu time :     2.2 secs   av.it.:   5.0
      thresh= 1.000E-02 alpha_mix =  0.700 |ddv_scf|^2 =  1.854E-07

      iter #   2 total cpu time :     2.4 secs   av.it.:  10.0
      thresh= 4.306E-05 alpha_mix =  0.700 |ddv_scf|^2 =  1.025E-08

      iter #   3 total cpu time :     2.9 secs   av.it.:   9.5
      thresh= 1.013E-05 alpha_mix =  0.700 |ddv_scf|^2 =  7.090E-10

      iter #   4 total cpu time :     3.0 secs   av.it.:   9.1
      thresh= 2.663E-06 alpha_mix =  0.700 |ddv_scf|^2 =  1.827E-12

      iter #   5 total cpu time :     3.2 secs   av.it.:   9.4
      thresh= 1.352E-07 alpha_mix =  0.700 |ddv_scf|^2 =  1.544E-14

     End of self-consistent calculation

     Convergence has been achieved 


     Representation #  2 modes #   4  5  6

     Self-consistent Calculation

      iter #   1 total cpu time :     3.5 secs   av.it.:   5.0
      thresh= 1.000E-02 alpha_mix =  0.700 |ddv_scf|^2 =  1.929E-07

      iter #   2 total cpu time :     3.6 secs   av.it.:   9.6
      thresh= 4.392E-05 alpha_mix =  0.700 |ddv_scf|^2 =  1.594E-08

      iter #   3 total cpu time :     3.8 secs   av.it.:   9.2
      thresh= 1.263E-05 alpha_mix =  0.700 |ddv_scf|^2 =  9.567E-10

      iter #   4 total cpu time :     4.0 secs   av.it.:   9.5
      thresh= 3.093E-06 alpha_mix =  0.700 |ddv_scf|^2 =  5.570E-12

      iter #   5 total cpu time :     4.2 secs   av.it.:   9.1
      thresh= 2.360E-07 alpha_mix =  0.700 |ddv_scf|^2 =  5.120E-15

     End of self-consistent calculation

     Convergence has been achieved 

     Number of q in the star =    1
     List of q in the star:
          1   0.000000000   0.000000000   0.000000000

          Dielectric constant in cartesian axis 

          (      14.031233584       0.000000000       0.000000000 )
          (       0.000000000      14.031233584      -0.000000000 )
          (       0.000000000       0.000000000      14.031233584 )

          Effective charges (d Force / dE) in cartesian axis

           atom      1   Si 
      Ex  (       -0.03351       -0.00000       -0.00000 )
      Ey  (       -0.00000       -0.03351        0.00000 )
      Ez  (       -0.00000        0.00000       -0.03351 )
           atom      2   Si 
      Ex  (       -0.03351       -0.00000       -0.00000 )
      Ey  (        0.00000       -0.03351       -0.00000 )
      Ez  (        0.00000       -0.00000       -0.03351 )

          Effective charges (d P / du) in cartesian axis 

           atom      1   Si 
      Px  (       -0.07603        0.00000        0.00000 )
      Py  (       -0.00000       -0.07603        0.00000 )
      Pz  (        0.00000        0.00000       -0.07603 )
           atom      2   Si 
      Px  (       -0.07603       -0.00000       -0.00000 )
      Py  (       -0.00000       -0.07603        0.00000 )
      Pz  (       -0.00000       -0.00000       -0.07603 )

     Diagonalizing the dynamical matrix

     q = (    0.000000000   0.000000000   0.000000000 ) 

 **************************************************************************
     freq (    1) =       1.771645 [THz] =      59.095727 [cm-1]
     freq (    2) =       1.771645 [THz] =      59.095727 [cm-1]
     freq (    3) =       1.771645 [THz] =      59.095727 [cm-1]
     freq (    4) =      15.555427 [THz] =     518.873209 [cm-1]
     freq (    5) =      15.555427 [THz] =     518.873209 [cm-1]
     freq (    6) =      15.555427 [THz] =     518.873209 [cm-1]
 **************************************************************************

     Mode symmetry, O_h (m-3m)  point group:

     freq (  1 -  3) =         59.1  [cm-1]   --> T_1u G_15  G_4- I  
     freq (  4 -  6) =        518.9  [cm-1]   --> T_2g G_25' G_5+ R  

     Calculation of q =   -0.2500000   0.2500000  -0.2500000

   Info: using nr1, nr2, nr3 values from input

   Info: using nr1, nr2, nr3 values from input

     Parallelization info
     --------------------
     sticks:   dense  smooth     PW     G-vecs:    dense   smooth      PW
     Min          66      66     24                  722      722     161
     Max          67      67     25                  724      724     162
     Sum         265     265     97                 2891     2891     645



     bravais-lattice index     =            2
     lattice parameter (alat)  =      10.4040  a.u.
     unit-cell volume          =     281.5406 (a.u.)^3
     number of atoms/cell      =            2
     number of atomic types    =            1
     number of electrons       =         8.00
     number of Kohn-Sham states=            4
     kinetic-energy cutoff     =      18.0000  Ry
     charge density cutoff     =      72.0000  Ry
     Exchange-correlation      = SLA  PW   PBE  PBE ( 1  4  3  4 0 0)

     celldm(1)=  10.404000  celldm(2)=   0.000000  celldm(3)=   0.000000
     celldm(4)=   0.000000  celldm(5)=   0.000000  celldm(6)=   0.000000

     crystal axes: (cart. coord. in units of alat)
               a(1) = (  -0.500000   0.000000   0.500000 )  
               a(2) = (   0.000000   0.500000   0.500000 )  
               a(3) = (  -0.500000   0.500000   0.000000 )  

     reciprocal axes: (cart. coord. in units 2 pi/alat)
               b(1) = ( -1.000000 -1.000000  1.000000 )  
               b(2) = (  1.000000  1.000000  1.000000 )  
               b(3) = ( -1.000000  1.000000 -1.000000 )  


     PseudoPot. # 1 for Si read from file:
     /home/max/quantum_espresso/qe-6.1/pseudo/si_pbe_v1.uspp.F.UPF.txt
     MD5 check sum: a056efeee980c13900f22a371efd63c1
     Pseudo is Ultrasoft + core correction, Zval =  4.0
     Generated by new atomic code, or converted to UPF format
     Using radial grid of  899 points,  6 beta functions with: 
                l(1) =   0
                l(2) =   0
                l(3) =   1
                l(4) =   1
                l(5) =   2
                l(6) =   2
     Q(r) pseudized with  8 coefficients,  rinner =    0.900   0.900   0.900
                                                       0.900   0.900

     atomic species   valence    mass     pseudopotential
        Si             4.00    28.08600     Si( 1.00)

     48 Sym. Ops., with inversion, found



   Cartesian axes

     site n.     atom                  positions (alat units)
         1           Si  tau(   1) = (   0.0000000   0.0000000   0.0000000  )
         2           Si  tau(   2) = (   0.2500000   0.2500000   0.2500000  )

     number of k points=   120

     Number of k-points >= 100: set verbosity='high' to print them.

     Dense  grid:     2891 G-vectors     FFT dimensions: (  20,  20,  20)

     Estimated max dynamical RAM per process >       0.33MB

     Estimated total allocated dynamical RAM >       1.33MB

     Check: negative/imaginary core charge=   -0.000006    0.000000

     The potential is recalculated from file :
     ./_ph0/silicon.10.404.save/charge-density.dat

     Starting wfc are    8 atomic wfcs

     Band Structure Calculation
     Davidson diagonalization with overlap

     ethr =  1.25E-10,  avg # of iterations = 11.7

     total cpu time spent up to now is        0.9 secs

     End of band structure calculation

     Number of k-points >= 100: set verbosity='high' to print the bands.

     highest occupied level (ev):     5.4987

     Writing output data file silicon.10.404.save

                                                                                

     bravais-lattice index     =            2
     lattice parameter (alat)  =      10.4040  a.u.
     unit-cell volume          =     281.5406 (a.u.)^3
     number of atoms/cell      =            2
     number of atomic types    =            1
     kinetic-energy cut-off    =      18.0000  Ry
     charge density cut-off    =      72.0000  Ry
     convergence threshold     =      1.0E-12
     beta                      =       0.7000
     number of iterations used =            4
     Exchange-correlation      = SLA  PW   PBE  PBE ( 1  4  3  4 0 0)


     celldm(1)=   10.40400  celldm(2)=    0.00000  celldm(3)=    0.00000
     celldm(4)=    0.00000  celldm(5)=    0.00000  celldm(6)=    0.00000

     crystal axes: (cart. coord. in units of alat)
               a(1) = ( -0.5000  0.0000  0.5000 )  
               a(2) = (  0.0000  0.5000  0.5000 )  
               a(3) = ( -0.5000  0.5000  0.0000 )  

     reciprocal axes: (cart. coord. in units 2 pi/alat)
               b(1) = ( -1.0000 -1.0000  1.0000 )  
               b(2) = (  1.0000  1.0000  1.0000 )  
               b(3) = ( -1.0000  1.0000 -1.0000 )  


     Atoms inside the unit cell: 

     Cartesian axes

     site n.  atom      mass           positions (alat units)
        1     Si  28.0860   tau(    1) = (    0.00000    0.00000    0.00000  )
        2     Si  28.0860   tau(    2) = (    0.25000    0.25000    0.25000  )

     Computing dynamical matrix for 
                    q = (  -0.2500000   0.2500000  -0.2500000 )

      6 Sym.Ops. (no q -> -q+G )


     G cutoff =  197.4120  (    722 G-vectors)     FFT grid: ( 20, 20, 20)
     number of k points=   120

     PseudoPot. # 1 for Si read from file:
     /home/max/quantum_espresso/qe-6.1/pseudo/si_pbe_v1.uspp.F.UPF.txt
     MD5 check sum: a056efeee980c13900f22a371efd63c1
     Pseudo is Ultrasoft + core correction, Zval =  4.0
     Generated by new atomic code, or converted to UPF format
     Using radial grid of  899 points,  6 beta functions with: 
                l(1) =   0
                l(2) =   0
                l(3) =   1
                l(4) =   1
                l(5) =   2
                l(6) =   2
     Q(r) pseudized with  8 coefficients,  rinner =    0.900   0.900   0.900
                                                       0.900   0.900

     Mode symmetry, C_3v (3m)   point group:


     Atomic displacements:
     There are   4 irreducible representations

     Representation     1      1 modes -A_1  L_1  To be done

     Representation     2      1 modes -A_1  L_1  To be done

     Representation     3      2 modes -E    L_3  To be done

     Representation     4      2 modes -E    L_3  To be done



     Alpha used in Ewald sum =   0.7000
     PHONON       :     5.13s CPU         5.57s WALL



     Representation #  1 mode #   1

     Self-consistent Calculation

      iter #   1 total cpu time :     5.8 secs   av.it.:   5.5
      thresh= 1.000E-02 alpha_mix =  0.700 |ddv_scf|^2 =  2.426E-03

      iter #   2 total cpu time :     6.0 secs   av.it.:   7.5
      thresh= 4.926E-03 alpha_mix =  0.700 |ddv_scf|^2 =  3.692E-02

      iter #   3 total cpu time :     6.2 secs   av.it.:   6.3
      thresh= 1.000E-02 alpha_mix =  0.700 |ddv_scf|^2 =  1.683E-06

      iter #   4 total cpu time :     6.7 secs   av.it.:   8.2
      thresh= 1.297E-04 alpha_mix =  0.700 |ddv_scf|^2 =  1.131E-07

      iter #   5 total cpu time :     7.0 secs   av.it.:   8.1
      thresh= 3.363E-05 alpha_mix =  0.700 |ddv_scf|^2 =  4.630E-09

      iter #   6 total cpu time :     7.2 secs   av.it.:   8.1
      thresh= 6.804E-06 alpha_mix =  0.700 |ddv_scf|^2 =  3.797E-09

      iter #   7 total cpu time :     7.4 secs   av.it.:   6.3
      thresh= 6.162E-06 alpha_mix =  0.700 |ddv_scf|^2 =  6.889E-10

      iter #   8 total cpu time :     7.7 secs   av.it.:   7.2
      thresh= 2.625E-06 alpha_mix =  0.700 |ddv_scf|^2 =  5.144E-12

      iter #   9 total cpu time :     7.9 secs   av.it.:   7.1
      thresh= 2.268E-07 alpha_mix =  0.700 |ddv_scf|^2 =  2.752E-13

     End of self-consistent calculation

     Convergence has been achieved 


     Representation #  2 mode #   2

     Self-consistent Calculation

      iter #   1 total cpu time :     8.2 secs   av.it.:   5.5
      thresh= 1.000E-02 alpha_mix =  0.700 |ddv_scf|^2 =  2.426E-03

      iter #   2 total cpu time :     8.4 secs   av.it.:   7.5
      thresh= 4.926E-03 alpha_mix =  0.700 |ddv_scf|^2 =  3.692E-02

      iter #   3 total cpu time :     9.0 secs   av.it.:   6.3
      thresh= 1.000E-02 alpha_mix =  0.700 |ddv_scf|^2 =  1.683E-06

      iter #   4 total cpu time :     9.2 secs   av.it.:   8.2
      thresh= 1.297E-04 alpha_mix =  0.700 |ddv_scf|^2 =  1.131E-07

      iter #   5 total cpu time :     9.5 secs   av.it.:   8.1
      thresh= 3.363E-05 alpha_mix =  0.700 |ddv_scf|^2 =  4.630E-09

      iter #   6 total cpu time :     9.7 secs   av.it.:   8.1
      thresh= 6.804E-06 alpha_mix =  0.700 |ddv_scf|^2 =  3.797E-09

      iter #   7 total cpu time :     9.9 secs   av.it.:   6.3
      thresh= 6.162E-06 alpha_mix =  0.700 |ddv_scf|^2 =  6.889E-10

      iter #   8 total cpu time :    10.2 secs   av.it.:   7.2
      thresh= 2.625E-06 alpha_mix =  0.700 |ddv_scf|^2 =  5.144E-12

      iter #   9 total cpu time :    10.4 secs   av.it.:   7.1
      thresh= 2.268E-07 alpha_mix =  0.700 |ddv_scf|^2 =  2.752E-13

     End of self-consistent calculation

     Convergence has been achieved 


     Representation #  3 modes #   3  4

     Self-consistent Calculation

      iter #   1 total cpu time :    11.1 secs   av.it.:   4.9
      thresh= 1.000E-02 alpha_mix =  0.700 |ddv_scf|^2 =  5.362E-07

      iter #   2 total cpu time :    11.7 secs   av.it.:   9.5
      thresh= 7.323E-05 alpha_mix =  0.700 |ddv_scf|^2 =  4.023E-08

      iter #   3 total cpu time :    12.3 secs   av.it.:   9.3
      thresh= 2.006E-05 alpha_mix =  0.700 |ddv_scf|^2 =  3.465E-09

      iter #   4 total cpu time :    13.2 secs   av.it.:   8.9
      thresh= 5.886E-06 alpha_mix =  0.700 |ddv_scf|^2 =  1.144E-11

      iter #   5 total cpu time :    13.7 secs   av.it.:   9.2
      thresh= 3.383E-07 alpha_mix =  0.700 |ddv_scf|^2 =  5.100E-13

     End of self-consistent calculation

     Convergence has been achieved 


     Representation #  4 modes #   5  6

     Self-consistent Calculation

      iter #   1 total cpu time :    14.2 secs   av.it.:   5.0
      thresh= 1.000E-02 alpha_mix =  0.700 |ddv_scf|^2 =  5.360E-07

      iter #   2 total cpu time :    15.1 secs   av.it.:   9.7
      thresh= 7.322E-05 alpha_mix =  0.700 |ddv_scf|^2 =  4.016E-08

      iter #   3 total cpu time :    15.7 secs   av.it.:   9.4
      thresh= 2.004E-05 alpha_mix =  0.700 |ddv_scf|^2 =  3.461E-09

      iter #   4 total cpu time :    16.2 secs   av.it.:   9.1
      thresh= 5.883E-06 alpha_mix =  0.700 |ddv_scf|^2 =  1.145E-11

      iter #   5 total cpu time :    17.1 secs   av.it.:   9.3
      thresh= 3.383E-07 alpha_mix =  0.700 |ddv_scf|^2 =  5.102E-13

     End of self-consistent calculation

     Convergence has been achieved 

     Number of q in the star =    8
     List of q in the star:
          1  -0.250000000   0.250000000  -0.250000000
          2   0.250000000  -0.250000000  -0.250000000
          3   0.250000000  -0.250000000   0.250000000
          4   0.250000000   0.250000000   0.250000000
          5  -0.250000000  -0.250000000  -0.250000000
          6  -0.250000000  -0.250000000   0.250000000
          7  -0.250000000   0.250000000   0.250000000
          8   0.250000000   0.250000000  -0.250000000

     Diagonalizing the dynamical matrix

     q = (   -0.250000000   0.250000000  -0.250000000 ) 

 **************************************************************************
     freq (    1) =       3.405299 [THz] =     113.588540 [cm-1]
     freq (    2) =       3.405299 [THz] =     113.588540 [cm-1]
     freq (    3) =       6.819730 [THz] =     227.481696 [cm-1]
     freq (    4) =      14.656094 [THz] =     488.874670 [cm-1]
     freq (    5) =      14.930752 [THz] =     498.036286 [cm-1]
     freq (    6) =      14.930752 [THz] =     498.036286 [cm-1]
 **************************************************************************

     Mode symmetry, C_3v (3m)   point group:

     freq (  1 -  2) =        113.6  [cm-1]   --> E    L_3           
     freq (  3 -  3) =        227.5  [cm-1]   --> A_1  L_1           
     freq (  4 -  4) =        488.9  [cm-1]   --> A_1  L_1           
     freq (  5 -  6) =        498.0  [cm-1]   --> E    L_3           

     Calculation of q =    0.5000000  -0.5000000   0.5000000

   Info: using nr1, nr2, nr3 values from input

   Info: using nr1, nr2, nr3 values from input

     Parallelization info
     --------------------
     sticks:   dense  smooth     PW     G-vecs:    dense   smooth      PW
     Min          66      66     27                  722      722     186
     Max          67      67     28                  724      724     189
     Sum         265     265    109                 2891     2891     749



     bravais-lattice index     =            2
     lattice parameter (alat)  =      10.4040  a.u.
     unit-cell volume          =     281.5406 (a.u.)^3
     number of atoms/cell      =            2
     number of atomic types    =            1
     number of electrons       =         8.00
     number of Kohn-Sham states=            4
     kinetic-energy cutoff     =      18.0000  Ry
     charge density cutoff     =      72.0000  Ry
     Exchange-correlation      = SLA  PW   PBE  PBE ( 1  4  3  4 0 0)

     celldm(1)=  10.404000  celldm(2)=   0.000000  celldm(3)=   0.000000
     celldm(4)=   0.000000  celldm(5)=   0.000000  celldm(6)=   0.000000

     crystal axes: (cart. coord. in units of alat)
               a(1) = (  -0.500000   0.000000   0.500000 )  
               a(2) = (   0.000000   0.500000   0.500000 )  
               a(3) = (  -0.500000   0.500000   0.000000 )  

     reciprocal axes: (cart. coord. in units 2 pi/alat)
               b(1) = ( -1.000000 -1.000000  1.000000 )  
               b(2) = (  1.000000  1.000000  1.000000 )  
               b(3) = ( -1.000000  1.000000 -1.000000 )  


     PseudoPot. # 1 for Si read from file:
     /home/max/quantum_espresso/qe-6.1/pseudo/si_pbe_v1.uspp.F.UPF.txt
     MD5 check sum: a056efeee980c13900f22a371efd63c1
     Pseudo is Ultrasoft + core correction, Zval =  4.0
     Generated by new atomic code, or converted to UPF format
     Using radial grid of  899 points,  6 beta functions with: 
                l(1) =   0
                l(2) =   0
                l(3) =   1
                l(4) =   1
                l(5) =   2
                l(6) =   2
     Q(r) pseudized with  8 coefficients,  rinner =    0.900   0.900   0.900
                                                       0.900   0.900

     atomic species   valence    mass     pseudopotential
        Si             4.00    28.08600     Si( 1.00)

     48 Sym. Ops., with inversion, found



   Cartesian axes

     site n.     atom                  positions (alat units)
         1           Si  tau(   1) = (   0.0000000   0.0000000   0.0000000  )
         2           Si  tau(   2) = (   0.2500000   0.2500000   0.2500000  )

     number of k points=    60
                       cart. coord. in units 2pi/alat
        k(    1) = (  -0.1250000   0.1250000   0.1250000), wk =   0.0468750
        k(    2) = (   0.3750000  -0.3750000   0.6250000), wk =   0.0000000
        k(    3) = (  -0.3750000   0.3750000  -0.1250000), wk =   0.0468750
        k(    4) = (   0.1250000  -0.1250000   0.3750000), wk =   0.0000000
        k(    5) = (   0.3750000  -0.3750000   0.6250000), wk =   0.0468750
        k(    6) = (   0.8750000  -0.8750000   1.1250000), wk =   0.0000000
        k(    7) = (   0.1250000  -0.1250000   0.3750000), wk =   0.0468750
        k(    8) = (   0.6250000  -0.6250000   0.8750000), wk =   0.0000000
        k(    9) = (  -0.1250000   0.6250000   0.1250000), wk =   0.0937500
        k(   10) = (   0.3750000   0.1250000   0.6250000), wk =   0.0000000
        k(   11) = (   0.6250000  -0.1250000   0.8750000), wk =   0.0937500
        k(   12) = (   1.1250000  -0.6250000   1.3750000), wk =   0.0000000
        k(   13) = (   0.3750000   0.1250000   0.6250000), wk =   0.0937500
        k(   14) = (   0.8750000  -0.3750000   1.1250000), wk =   0.0000000
        k(   15) = (  -0.1250000  -0.8750000   0.1250000), wk =   0.0937500
        k(   16) = (   0.3750000  -1.3750000   0.6250000), wk =   0.0000000
        k(   17) = (  -0.3750000   0.3750000   0.3750000), wk =   0.0468750
        k(   18) = (   0.1250000  -0.1250000   0.8750000), wk =   0.0000000
        k(   19) = (   0.3750000  -0.3750000   1.1250000), wk =   0.0468750
        k(   20) = (   0.8750000  -0.8750000   1.6250000), wk =   0.0000000
        k(   21) = (   0.1250000  -0.1250000   0.1250000), wk =   0.0156250
        k(   22) = (   0.6250000  -0.6250000   0.6250000), wk =   0.0000000
        k(   23) = (  -0.3750000  -0.3750000  -0.1250000), wk =   0.0937500
        k(   24) = (   0.1250000  -0.8750000   0.3750000), wk =   0.0000000
        k(   25) = (  -0.1250000  -0.3750000   0.3750000), wk =   0.0468750
        k(   26) = (   0.3750000  -0.8750000   0.8750000), wk =   0.0000000
        k(   27) = (   0.3750000   0.3750000   0.6250000), wk =   0.0937500
        k(   28) = (   0.8750000  -0.1250000   1.1250000), wk =   0.0000000
        k(   29) = (   0.6250000   0.3750000  -0.3750000), wk =   0.0468750
        k(   30) = (   1.1250000  -0.1250000   0.1250000), wk =   0.0000000
        k(   31) = (   0.1250000   0.1250000   0.3750000), wk =   0.0937500
        k(   32) = (   0.6250000  -0.3750000   0.8750000), wk =   0.0000000
        k(   33) = (   0.3750000   0.1250000  -0.1250000), wk =   0.0468750
        k(   34) = (   0.8750000  -0.3750000   0.3750000), wk =   0.0000000
        k(   35) = (  -0.1250000  -0.6250000  -0.1250000), wk =   0.0468750
        k(   36) = (   0.3750000  -1.1250000   0.3750000), wk =   0.0000000
        k(   37) = (   0.1250000  -0.6250000   0.1250000), wk =   0.0468750
        k(   38) = (   0.6250000  -1.1250000   0.6250000), wk =   0.0000000
        k(   39) = (   0.6250000   0.1250000   0.8750000), wk =   0.0937500
        k(   40) = (   1.1250000  -0.3750000   1.3750000), wk =   0.0000000
        k(   41) = (  -0.8750000   0.1250000   0.6250000), wk =   0.0937500
        k(   42) = (  -0.3750000  -0.3750000   1.1250000), wk =   0.0000000
        k(   43) = (   0.8750000   0.1250000  -0.6250000), wk =   0.0937500
        k(   44) = (   1.3750000  -0.3750000  -0.1250000), wk =   0.0000000
        k(   45) = (   0.3750000  -0.1250000   0.6250000), wk =   0.0937500
        k(   46) = (   0.8750000  -0.6250000   1.1250000), wk =   0.0000000
        k(   47) = (  -0.6250000  -0.1250000   0.3750000), wk =   0.0937500
        k(   48) = (  -0.1250000  -0.6250000   0.8750000), wk =   0.0000000
        k(   49) = (   0.6250000  -0.1250000  -0.3750000), wk =   0.0937500
        k(   50) = (   1.1250000  -0.6250000   0.1250000), wk =   0.0000000
        k(   51) = (  -0.1250000   0.8750000  -0.1250000), wk =   0.0468750
        k(   52) = (   0.3750000   0.3750000   0.3750000), wk =   0.0000000
        k(   53) = (   0.1250000   0.8750000   0.1250000), wk =   0.0468750
        k(   54) = (   0.6250000   0.3750000   0.6250000), wk =   0.0000000
        k(   55) = (   0.3750000  -0.3750000   0.3750000), wk =   0.0156250
        k(   56) = (   0.8750000  -0.8750000   0.8750000), wk =   0.0000000
        k(   57) = (   0.3750000   0.3750000   1.1250000), wk =   0.0937500
        k(   58) = (   0.8750000  -0.1250000   1.6250000), wk =   0.0000000
        k(   59) = (   1.1250000   0.3750000  -0.3750000), wk =   0.0468750
        k(   60) = (   1.6250000  -0.1250000   0.1250000), wk =   0.0000000

     Dense  grid:     2891 G-vectors     FFT dimensions: (  20,  20,  20)

     Estimated max dynamical RAM per process >       0.33MB

     Estimated total allocated dynamical RAM >       1.33MB

     Check: negative/imaginary core charge=   -0.000006    0.000000

     The potential is recalculated from file :
     ./_ph0/silicon.10.404.save/charge-density.dat

     Starting wfc are    8 atomic wfcs

     Band Structure Calculation
     Davidson diagonalization with overlap

     ethr =  1.25E-10,  avg # of iterations = 11.7

     total cpu time spent up to now is        1.5 secs

     End of band structure calculation

          k =-0.1250 0.1250 0.1250 (   353 PWs)   bands (ev):

    -5.7049   4.1874   5.4987   5.4987

          k = 0.3750-0.3750 0.6250 (   364 PWs)   bands (ev):

    -3.5916  -0.7986   3.5617   4.2690

          k =-0.3750 0.3750-0.1250 (   362 PWs)   bands (ev):

    -4.6998   1.2297   3.5526   5.0222

          k = 0.1250-0.1250 0.3750 (   358 PWs)   bands (ev):

    -5.1874   2.5787   4.5135   4.5655

          k = 0.3750-0.3750 0.6250 (   364 PWs)   bands (ev):

    -3.5916  -0.7986   3.5617   4.2690

          k = 0.8750-0.8750 1.1250 (   353 PWs)   bands (ev):

    -5.7049   4.1874   5.4987   5.4987

          k = 0.1250-0.1250 0.3750 (   358 PWs)   bands (ev):

    -5.1874   2.5787   4.5135   4.5655

          k = 0.6250-0.6250 0.8750 (   362 PWs)   bands (ev):

    -4.6998   1.2297   3.5526   5.0222

          k =-0.1250 0.6250 0.1250 (   357 PWs)   bands (ev):

    -4.1768   0.8736   3.2163   3.6559

          k = 0.3750 0.1250 0.6250 (   365 PWs)   bands (ev):

    -3.7730   0.0306   2.5851   3.9267

          k = 0.6250-0.1250 0.8750 (   368 PWs)   bands (ev):

    -2.5774  -1.0572   1.9027   2.9509

          k = 1.1250-0.6250 1.3750 (   362 PWs)   bands (ev):

    -4.6998   1.2297   3.5526   5.0222

          k = 0.3750 0.1250 0.6250 (   365 PWs)   bands (ev):

    -3.7730   0.0306   2.5851   3.9267

          k = 0.8750-0.3750 1.1250 (   357 PWs)   bands (ev):

    -4.1768   0.8736   3.2163   3.6559

          k =-0.1250-0.8750 0.1250 (   364 PWs)   bands (ev):

    -2.7353  -0.9646   2.4946   3.1972

          k = 0.3750-1.3750 0.6250 (   364 PWs)   bands (ev):

    -3.5916  -0.7986   3.5617   4.2690

          k =-0.3750 0.3750 0.3750 (   359 PWs)   bands (ev):

    -4.2783  -0.0243   4.7217   4.7217

          k = 0.1250-0.1250 0.8750 (   364 PWs)   bands (ev):

    -2.7353  -0.9646   2.4946   3.1972

          k = 0.3750-0.3750 1.1250 (   369 PWs)   bands (ev):

    -3.1052  -0.7412   1.9509   3.9599

          k = 0.8750-0.8750 1.6250 (   357 PWs)   bands (ev):

    -4.1768   0.8736   3.2163   3.6559

          k = 0.1250-0.1250 0.1250 (   353 PWs)   bands (ev):

    -5.7049   4.1874   5.4987   5.4987

          k = 0.6250-0.6250 0.6250 (   359 PWs)   bands (ev):

    -4.2783  -0.0243   4.7217   4.7217

          k =-0.3750-0.3750-0.1250 (   362 PWs)   bands (ev):

    -4.6998   1.2297   3.5526   5.0222

          k = 0.1250-0.8750 0.3750 (   368 PWs)   bands (ev):

    -2.5774  -1.0572   1.9027   2.9509

          k =-0.1250-0.3750 0.3750 (   362 PWs)   bands (ev):

    -4.6998   1.2297   3.5526   5.0222

          k = 0.3750-0.8750 0.8750 (   357 PWs)   bands (ev):

    -4.1768   0.8736   3.2163   3.6559

          k = 0.3750 0.3750 0.6250 (   364 PWs)   bands (ev):

    -3.5916  -0.7986   3.5617   4.2690

          k = 0.8750-0.1250 1.1250 (   364 PWs)   bands (ev):

    -2.7353  -0.9646   2.4946   3.1972

          k = 0.6250 0.3750-0.3750 (   364 PWs)   bands (ev):

    -3.5916  -0.7986   3.5617   4.2690

          k = 1.1250-0.1250 0.1250 (   364 PWs)   bands (ev):

    -2.7353  -0.9646   2.4946   3.1972

          k = 0.1250 0.1250 0.3750 (   358 PWs)   bands (ev):

    -5.1874   2.5787   4.5135   4.5655

          k = 0.6250-0.3750 0.8750 (   365 PWs)   bands (ev):

    -3.7730   0.0306   2.5851   3.9267

          k = 0.3750 0.1250-0.1250 (   358 PWs)   bands (ev):

    -5.1874   2.5787   4.5135   4.5655

          k = 0.8750-0.3750 0.3750 (   369 PWs)   bands (ev):

    -3.1052  -0.7412   1.9509   3.9599

          k =-0.1250-0.6250-0.1250 (   357 PWs)   bands (ev):

    -4.1768   0.8736   3.2163   3.6559

          k = 0.3750-1.1250 0.3750 (   369 PWs)   bands (ev):

    -3.1052  -0.7412   1.9509   3.9599

          k = 0.1250-0.6250 0.1250 (   357 PWs)   bands (ev):

    -4.1768   0.8736   3.2163   3.6559

          k = 0.6250-1.1250 0.6250 (   362 PWs)   bands (ev):

    -4.6998   1.2297   3.5526   5.0222

          k = 0.6250 0.1250 0.8750 (   368 PWs)   bands (ev):

    -2.5774  -1.0572   1.9027   2.9509

          k = 1.1250-0.3750 1.3750 (   365 PWs)   bands (ev):

    -3.7730   0.0306   2.5851   3.9267

          k =-0.8750 0.1250 0.6250 (   368 PWs)   bands (ev):

    -2.5774  -1.0572   1.9027   2.9509

          k =-0.3750-0.3750 1.1250 (   369 PWs)   bands (ev):

    -3.1052  -0.7412   1.9509   3.9599

          k = 0.8750 0.1250-0.6250 (   368 PWs)   bands (ev):

    -2.5774  -1.0572   1.9027   2.9509

          k = 1.3750-0.3750-0.1250 (   365 PWs)   bands (ev):

    -3.7730   0.0306   2.5851   3.9267

          k = 0.3750-0.1250 0.6250 (   365 PWs)   bands (ev):

    -3.7730   0.0306   2.5851   3.9267

          k = 0.8750-0.6250 1.1250 (   358 PWs)   bands (ev):

    -5.1874   2.5787   4.5135   4.5655

          k =-0.6250-0.1250 0.3750 (   365 PWs)   bands (ev):

    -3.7730   0.0306   2.5851   3.9267

          k =-0.1250-0.6250 0.8750 (   368 PWs)   bands (ev):

    -2.5774  -1.0572   1.9027   2.9509

          k = 0.6250-0.1250-0.3750 (   365 PWs)   bands (ev):

    -3.7730   0.0306   2.5851   3.9267

          k = 1.1250-0.6250 0.1250 (   368 PWs)   bands (ev):

    -2.5774  -1.0572   1.9027   2.9509

          k =-0.1250 0.8750-0.1250 (   364 PWs)   bands (ev):

    -2.7353  -0.9646   2.4946   3.1972

          k = 0.3750 0.3750 0.3750 (   359 PWs)   bands (ev):

    -4.2783  -0.0243   4.7217   4.7217

          k = 0.1250 0.8750 0.1250 (   364 PWs)   bands (ev):

    -2.7353  -0.9646   2.4946   3.1972

          k = 0.6250 0.3750 0.6250 (   364 PWs)   bands (ev):

    -3.5916  -0.7986   3.5617   4.2690

          k = 0.3750-0.3750 0.3750 (   359 PWs)   bands (ev):

    -4.2783  -0.0243   4.7217   4.7217

          k = 0.8750-0.8750 0.8750 (   353 PWs)   bands (ev):

    -5.7049   4.1874   5.4987   5.4987

          k = 0.3750 0.3750 1.1250 (   369 PWs)   bands (ev):

    -3.1052  -0.7412   1.9509   3.9599

          k = 0.8750-0.1250 1.6250 (   368 PWs)   bands (ev):

    -2.5774  -1.0572   1.9027   2.9509

          k = 1.1250 0.3750-0.3750 (   369 PWs)   bands (ev):

    -3.1052  -0.7412   1.9509   3.9599

          k = 1.6250-0.1250 0.1250 (   358 PWs)   bands (ev):

    -5.1874   2.5787   4.5135   4.5655

     highest occupied level (ev):     5.4987

     Writing output data file silicon.10.404.save

                                                                                

     bravais-lattice index     =            2
     lattice parameter (alat)  =      10.4040  a.u.
     unit-cell volume          =     281.5406 (a.u.)^3
     number of atoms/cell      =            2
     number of atomic types    =            1
     kinetic-energy cut-off    =      18.0000  Ry
     charge density cut-off    =      72.0000  Ry
     convergence threshold     =      1.0E-12
     beta                      =       0.7000
     number of iterations used =            4
     Exchange-correlation      = SLA  PW   PBE  PBE ( 1  4  3  4 0 0)


     celldm(1)=   10.40400  celldm(2)=    0.00000  celldm(3)=    0.00000
     celldm(4)=    0.00000  celldm(5)=    0.00000  celldm(6)=    0.00000

     crystal axes: (cart. coord. in units of alat)
               a(1) = ( -0.5000  0.0000  0.5000 )  
               a(2) = (  0.0000  0.5000  0.5000 )  
               a(3) = ( -0.5000  0.5000  0.0000 )  

     reciprocal axes: (cart. coord. in units 2 pi/alat)
               b(1) = ( -1.0000 -1.0000  1.0000 )  
               b(2) = (  1.0000  1.0000  1.0000 )  
               b(3) = ( -1.0000  1.0000 -1.0000 )  


     Atoms inside the unit cell: 

     Cartesian axes

     site n.  atom      mass           positions (alat units)
        1     Si  28.0860   tau(    1) = (    0.00000    0.00000    0.00000  )
        2     Si  28.0860   tau(    2) = (    0.25000    0.25000    0.25000  )

     Computing dynamical matrix for 
                    q = (   0.5000000  -0.5000000   0.5000000 )

     13 Sym.Ops. (with q -> -q+G )


     G cutoff =  197.4120  (    722 G-vectors)     FFT grid: ( 20, 20, 20)
     number of k points=    60

     PseudoPot. # 1 for Si read from file:
     /home/max/quantum_espresso/qe-6.1/pseudo/si_pbe_v1.uspp.F.UPF.txt
     MD5 check sum: a056efeee980c13900f22a371efd63c1
     Pseudo is Ultrasoft + core correction, Zval =  4.0
     Generated by new atomic code, or converted to UPF format
     Using radial grid of  899 points,  6 beta functions with: 
                l(1) =   0
                l(2) =   0
                l(3) =   1
                l(4) =   1
                l(5) =   2
                l(6) =   2
     Q(r) pseudized with  8 coefficients,  rinner =    0.900   0.900   0.900
                                                       0.900   0.900


     Atomic displacements:
     There are   4 irreducible representations

     Representation     1      1 modes -  To be done

     Representation     2      1 modes -  To be done

     Representation     3      2 modes -  To be done

     Representation     4      2 modes -  To be done



     Alpha used in Ewald sum =   0.7000
     PHONON       :    16.26s CPU        17.86s WALL



     Representation #  1 mode #   1

     Self-consistent Calculation

      iter #   1 total cpu time :    18.0 secs   av.it.:   4.8
      thresh= 1.000E-02 alpha_mix =  0.700 |ddv_scf|^2 =  2.428E-05

      iter #   2 total cpu time :    18.1 secs   av.it.:   8.4
      thresh= 4.927E-04 alpha_mix =  0.700 |ddv_scf|^2 =  2.220E-05

      iter #   3 total cpu time :    18.3 secs   av.it.:   7.5
      thresh= 4.712E-04 alpha_mix =  0.700 |ddv_scf|^2 =  3.820E-08

      iter #   4 total cpu time :    18.4 secs   av.it.:   7.6
      thresh= 1.954E-05 alpha_mix =  0.700 |ddv_scf|^2 =  1.497E-10

      iter #   5 total cpu time :    18.7 secs   av.it.:   7.8
      thresh= 1.223E-06 alpha_mix =  0.700 |ddv_scf|^2 =  4.227E-12

      iter #   6 total cpu time :    19.0 secs   av.it.:   7.7
      thresh= 2.056E-07 alpha_mix =  0.700 |ddv_scf|^2 =  7.366E-14

     End of self-consistent calculation

     Convergence has been achieved 


     Representation #  2 mode #   2

     Self-consistent Calculation

      iter #   1 total cpu time :    19.1 secs   av.it.:   5.7
      thresh= 1.000E-02 alpha_mix =  0.700 |ddv_scf|^2 =  3.413E-04

      iter #   2 total cpu time :    19.3 secs   av.it.:   8.3
      thresh= 1.847E-03 alpha_mix =  0.700 |ddv_scf|^2 =  1.055E-03

      iter #   3 total cpu time :    19.4 secs   av.it.:   7.1
      thresh= 3.249E-03 alpha_mix =  0.700 |ddv_scf|^2 =  1.476E-07

      iter #   4 total cpu time :    19.5 secs   av.it.:   8.2
      thresh= 3.842E-05 alpha_mix =  0.700 |ddv_scf|^2 =  1.008E-08

      iter #   5 total cpu time :    19.7 secs   av.it.:   8.4
      thresh= 1.004E-05 alpha_mix =  0.700 |ddv_scf|^2 =  1.739E-10

      iter #   6 total cpu time :    19.8 secs   av.it.:   8.2
      thresh= 1.319E-06 alpha_mix =  0.700 |ddv_scf|^2 =  4.101E-12

      iter #   7 total cpu time :    20.0 secs   av.it.:   7.5
      thresh= 2.025E-07 alpha_mix =  0.700 |ddv_scf|^2 =  2.191E-14

     End of self-consistent calculation

     Convergence has been achieved 


     Representation #  3 modes #   3  4

     Self-consistent Calculation

      iter #   1 total cpu time :    20.2 secs   av.it.:   4.7
      thresh= 1.000E-02 alpha_mix =  0.700 |ddv_scf|^2 =  3.420E-07

      iter #   2 total cpu time :    20.6 secs   av.it.:   8.9
      thresh= 5.848E-05 alpha_mix =  0.700 |ddv_scf|^2 =  2.950E-08

      iter #   3 total cpu time :    20.9 secs   av.it.:   8.3
      thresh= 1.718E-05 alpha_mix =  0.700 |ddv_scf|^2 =  5.119E-10

      iter #   4 total cpu time :    21.2 secs   av.it.:   8.9
      thresh= 2.263E-06 alpha_mix =  0.700 |ddv_scf|^2 =  6.448E-12

      iter #   5 total cpu time :    21.5 secs   av.it.:   8.7
      thresh= 2.539E-07 alpha_mix =  0.700 |ddv_scf|^2 =  3.603E-14

     End of self-consistent calculation

     Convergence has been achieved 


     Representation #  4 modes #   5  6

     Self-consistent Calculation

      iter #   1 total cpu time :    21.7 secs   av.it.:   4.9
      thresh= 1.000E-02 alpha_mix =  0.700 |ddv_scf|^2 =  9.419E-07

      iter #   2 total cpu time :    22.0 secs   av.it.:   9.5
      thresh= 9.705E-05 alpha_mix =  0.700 |ddv_scf|^2 =  7.491E-08

      iter #   3 total cpu time :    22.3 secs   av.it.:   9.3
      thresh= 2.737E-05 alpha_mix =  0.700 |ddv_scf|^2 =  4.480E-09

      iter #   4 total cpu time :    23.0 secs   av.it.:   8.5
      thresh= 6.694E-06 alpha_mix =  0.700 |ddv_scf|^2 =  6.542E-12

      iter #   5 total cpu time :    23.2 secs   av.it.:   8.8
      thresh= 2.558E-07 alpha_mix =  0.700 |ddv_scf|^2 =  2.562E-14

     End of self-consistent calculation

     Convergence has been achieved 

     Number of q in the star =    4
     List of q in the star:
          1   0.500000000  -0.500000000   0.500000000
          2   0.500000000   0.500000000   0.500000000
          3  -0.500000000   0.500000000   0.500000000
          4   0.500000000   0.500000000  -0.500000000

     Diagonalizing the dynamical matrix

     q = (    0.500000000  -0.500000000   0.500000000 ) 

 **************************************************************************
     freq (    1) =       5.106067 [THz] =     170.320050 [cm-1]
     freq (    2) =       5.106067 [THz] =     170.320050 [cm-1]
     freq (    3) =      11.904006 [THz] =     397.074902 [cm-1]
     freq (    4) =      12.178016 [THz] =     406.214881 [cm-1]
     freq (    5) =      14.697006 [THz] =     490.239354 [cm-1]
     freq (    6) =      14.697006 [THz] =     490.239354 [cm-1]
 **************************************************************************

     Calculation of q =    0.0000000   0.5000000   0.0000000

   Info: using nr1, nr2, nr3 values from input

   Info: using nr1, nr2, nr3 values from input

     Parallelization info
     --------------------
     sticks:   dense  smooth     PW     G-vecs:    dense   smooth      PW
     Min          66      66     27                  722      722     181
     Max          67      67     28                  724      724     182
     Sum         265     265    109                 2891     2891     725



     bravais-lattice index     =            2
     lattice parameter (alat)  =      10.4040  a.u.
     unit-cell volume          =     281.5406 (a.u.)^3
     number of atoms/cell      =            2
     number of atomic types    =            1
     number of electrons       =         8.00
     number of Kohn-Sham states=            4
     kinetic-energy cutoff     =      18.0000  Ry
     charge density cutoff     =      72.0000  Ry
     Exchange-correlation      = SLA  PW   PBE  PBE ( 1  4  3  4 0 0)

     celldm(1)=  10.404000  celldm(2)=   0.000000  celldm(3)=   0.000000
     celldm(4)=   0.000000  celldm(5)=   0.000000  celldm(6)=   0.000000

     crystal axes: (cart. coord. in units of alat)
               a(1) = (  -0.500000   0.000000   0.500000 )  
               a(2) = (   0.000000   0.500000   0.500000 )  
               a(3) = (  -0.500000   0.500000   0.000000 )  

     reciprocal axes: (cart. coord. in units 2 pi/alat)
               b(1) = ( -1.000000 -1.000000  1.000000 )  
               b(2) = (  1.000000  1.000000  1.000000 )  
               b(3) = ( -1.000000  1.000000 -1.000000 )  


     PseudoPot. # 1 for Si read from file:
     /home/max/quantum_espresso/qe-6.1/pseudo/si_pbe_v1.uspp.F.UPF.txt
     MD5 check sum: a056efeee980c13900f22a371efd63c1
     Pseudo is Ultrasoft + core correction, Zval =  4.0
     Generated by new atomic code, or converted to UPF format
     Using radial grid of  899 points,  6 beta functions with: 
                l(1) =   0
                l(2) =   0
                l(3) =   1
                l(4) =   1
                l(5) =   2
                l(6) =   2
     Q(r) pseudized with  8 coefficients,  rinner =    0.900   0.900   0.900
                                                       0.900   0.900

     atomic species   valence    mass     pseudopotential
        Si             4.00    28.08600     Si( 1.00)

     48 Sym. Ops., with inversion, found



   Cartesian axes

     site n.     atom                  positions (alat units)
         1           Si  tau(   1) = (   0.0000000   0.0000000   0.0000000  )
         2           Si  tau(   2) = (   0.2500000   0.2500000   0.2500000  )

     number of k points=    80
                       cart. coord. in units 2pi/alat
        k(    1) = (  -0.1250000   0.1250000   0.1250000), wk =   0.0312500
        k(    2) = (  -0.1250000   0.6250000   0.1250000), wk =   0.0000000
        k(    3) = (  -0.3750000   0.3750000  -0.1250000), wk =   0.0625000
        k(    4) = (  -0.3750000   0.8750000  -0.1250000), wk =   0.0000000
        k(    5) = (   0.3750000  -0.3750000   0.6250000), wk =   0.0625000
        k(    6) = (   0.3750000   0.1250000   0.6250000), wk =   0.0000000
        k(    7) = (   0.1250000  -0.1250000   0.3750000), wk =   0.0625000
        k(    8) = (   0.1250000   0.3750000   0.3750000), wk =   0.0000000
        k(    9) = (  -0.1250000   0.6250000   0.1250000), wk =   0.0312500
        k(   10) = (  -0.1250000   1.1250000   0.1250000), wk =   0.0000000
        k(   11) = (   0.6250000  -0.1250000   0.8750000), wk =   0.0625000
        k(   12) = (   0.6250000   0.3750000   0.8750000), wk =   0.0000000
        k(   13) = (   0.3750000   0.1250000   0.6250000), wk =   0.0625000
        k(   14) = (   0.3750000   0.6250000   0.6250000), wk =   0.0000000
        k(   15) = (  -0.1250000  -0.8750000   0.1250000), wk =   0.0312500
        k(   16) = (  -0.1250000  -0.3750000   0.1250000), wk =   0.0000000
        k(   17) = (  -0.3750000   0.3750000   0.3750000), wk =   0.0312500
        k(   18) = (  -0.3750000   0.8750000   0.3750000), wk =   0.0000000
        k(   19) = (   0.3750000  -0.3750000   1.1250000), wk =   0.0625000
        k(   20) = (   0.3750000   0.1250000   1.1250000), wk =   0.0000000
        k(   21) = (  -0.1250000  -0.1250000   0.1250000), wk =   0.0312500
        k(   22) = (  -0.1250000   0.3750000   0.1250000), wk =   0.0000000
        k(   23) = (   0.1250000  -0.3750000   0.3750000), wk =   0.0625000
        k(   24) = (   0.1250000   0.1250000   0.3750000), wk =   0.0000000
        k(   25) = (   0.3750000  -0.1250000   0.3750000), wk =   0.0312500
        k(   26) = (   0.3750000   0.3750000   0.3750000), wk =   0.0000000
        k(   27) = (   0.3750000   0.1250000   0.3750000), wk =   0.0312500
        k(   28) = (   0.3750000   0.6250000   0.3750000), wk =   0.0000000
        k(   29) = (  -0.6250000   0.3750000  -0.3750000), wk =   0.0625000
        k(   30) = (  -0.6250000   0.8750000  -0.3750000), wk =   0.0000000
        k(   31) = (  -0.3750000   0.6250000  -0.3750000), wk =   0.0312500
        k(   32) = (  -0.3750000   1.1250000  -0.3750000), wk =   0.0000000
        k(   33) = (  -0.3750000  -0.6250000  -0.3750000), wk =   0.0312500
        k(   34) = (  -0.3750000  -0.1250000  -0.3750000), wk =   0.0000000
        k(   35) = (  -0.3750000   0.1250000  -0.1250000), wk =   0.0625000
        k(   36) = (  -0.3750000   0.6250000  -0.1250000), wk =   0.0000000
        k(   37) = (  -0.1250000   0.3750000  -0.1250000), wk =   0.0312500
        k(   38) = (  -0.1250000   0.8750000  -0.1250000), wk =   0.0000000
        k(   39) = (  -0.1250000  -0.3750000  -0.1250000), wk =   0.0312500
        k(   40) = (  -0.1250000   0.1250000  -0.1250000), wk =   0.0000000
        k(   41) = (  -0.1250000  -0.6250000   0.1250000), wk =   0.0312500
        k(   42) = (  -0.1250000  -0.1250000   0.1250000), wk =   0.0000000
        k(   43) = (   0.6250000  -0.1250000  -0.1250000), wk =   0.0625000
        k(   44) = (   0.6250000   0.3750000  -0.1250000), wk =   0.0000000
        k(   45) = (   0.6250000   0.1250000   0.1250000), wk =   0.0625000
        k(   46) = (   0.6250000   0.6250000   0.1250000), wk =   0.0000000
        k(   47) = (  -0.8750000   0.1250000  -0.6250000), wk =   0.0625000
        k(   48) = (  -0.8750000   0.6250000  -0.6250000), wk =   0.0000000
        k(   49) = (  -0.1250000   0.6250000  -0.8750000), wk =   0.0625000
        k(   50) = (  -0.1250000   1.1250000  -0.8750000), wk =   0.0000000
        k(   51) = (  -0.1250000   0.8750000  -0.6250000), wk =   0.0625000
        k(   52) = (  -0.1250000   1.3750000  -0.6250000), wk =   0.0000000
        k(   53) = (  -0.1250000  -0.8750000  -0.6250000), wk =   0.0625000
        k(   54) = (  -0.1250000  -0.3750000  -0.6250000), wk =   0.0000000
        k(   55) = (   0.8750000  -0.6250000   0.1250000), wk =   0.0625000
        k(   56) = (   0.8750000  -0.1250000   0.1250000), wk =   0.0000000
        k(   57) = (  -0.6250000  -0.1250000  -0.3750000), wk =   0.0625000
        k(   58) = (  -0.6250000   0.3750000  -0.3750000), wk =   0.0000000
        k(   59) = (   0.1250000   0.3750000  -0.6250000), wk =   0.0625000
        k(   60) = (   0.1250000   0.8750000  -0.6250000), wk =   0.0000000
        k(   61) = (   0.1250000   0.6250000  -0.3750000), wk =   0.0625000
        k(   62) = (   0.1250000   1.1250000  -0.3750000), wk =   0.0000000
        k(   63) = (   0.1250000  -0.6250000  -0.3750000), wk =   0.0625000
        k(   64) = (   0.1250000  -0.1250000  -0.3750000), wk =   0.0000000
        k(   65) = (   0.6250000  -0.3750000  -0.1250000), wk =   0.0625000
        k(   66) = (   0.6250000   0.1250000  -0.1250000), wk =   0.0000000
        k(   67) = (  -0.1250000   0.8750000   0.1250000), wk =   0.0312500
        k(   68) = (  -0.1250000   1.3750000   0.1250000), wk =   0.0000000
        k(   69) = (  -0.8750000  -0.1250000  -0.1250000), wk =   0.0625000
        k(   70) = (  -0.8750000   0.3750000  -0.1250000), wk =   0.0000000
        k(   71) = (  -0.8750000   0.1250000   0.1250000), wk =   0.0625000
        k(   72) = (  -0.8750000   0.6250000   0.1250000), wk =   0.0000000
        k(   73) = (  -0.3750000  -0.3750000   0.3750000), wk =   0.0312500
        k(   74) = (  -0.3750000   0.1250000   0.3750000), wk =   0.0000000
        k(   75) = (  -1.1250000   0.3750000  -0.3750000), wk =   0.0625000
        k(   76) = (  -1.1250000   0.8750000  -0.3750000), wk =   0.0000000
        k(   77) = (  -0.3750000   1.1250000  -0.3750000), wk =   0.0312500
        k(   78) = (  -0.3750000   1.6250000  -0.3750000), wk =   0.0000000
        k(   79) = (  -0.3750000  -1.1250000  -0.3750000), wk =   0.0312500
        k(   80) = (  -0.3750000  -0.6250000  -0.3750000), wk =   0.0000000

     Dense  grid:     2891 G-vectors     FFT dimensions: (  20,  20,  20)

     Estimated max dynamical RAM per process >       0.33MB

     Estimated total allocated dynamical RAM >       1.33MB

     Check: negative/imaginary core charge=   -0.000006    0.000000

     The potential is recalculated from file :
     ./_ph0/silicon.10.404.save/charge-density.dat

     Starting wfc are    8 atomic wfcs

     Band Structure Calculation
     Davidson diagonalization with overlap

     ethr =  1.25E-10,  avg # of iterations = 11.7

     total cpu time spent up to now is        2.1 secs

     End of band structure calculation

          k =-0.1250 0.1250 0.1250 (   353 PWs)   bands (ev):

    -5.7049   4.1874   5.4987   5.4987

          k =-0.1250 0.6250 0.1250 (   357 PWs)   bands (ev):

    -4.1768   0.8736   3.2163   3.6559

          k =-0.3750 0.3750-0.1250 (   362 PWs)   bands (ev):

    -4.6998   1.2297   3.5526   5.0222

          k =-0.3750 0.8750-0.1250 (   368 PWs)   bands (ev):

    -2.5774  -1.0572   1.9027   2.9509

          k = 0.3750-0.3750 0.6250 (   364 PWs)   bands (ev):

    -3.5916  -0.7986   3.5617   4.2690

          k = 0.3750 0.1250 0.6250 (   365 PWs)   bands (ev):

    -3.7730   0.0306   2.5851   3.9267

          k = 0.1250-0.1250 0.3750 (   358 PWs)   bands (ev):

    -5.1874   2.5787   4.5135   4.5655

          k = 0.1250 0.3750 0.3750 (   362 PWs)   bands (ev):

    -4.6998   1.2297   3.5526   5.0222

          k =-0.1250 0.6250 0.1250 (   357 PWs)   bands (ev):

    -4.1768   0.8736   3.2163   3.6559

          k =-0.1250 1.1250 0.1250 (   364 PWs)   bands (ev):

    -2.7353  -0.9646   2.4946   3.1972

          k = 0.6250-0.1250 0.8750 (   368 PWs)   bands (ev):

    -2.5774  -1.0572   1.9027   2.9509

          k = 0.6250 0.3750 0.8750 (   365 PWs)   bands (ev):

    -3.7730   0.0306   2.5851   3.9267

          k = 0.3750 0.1250 0.6250 (   365 PWs)   bands (ev):

    -3.7730   0.0306   2.5851   3.9267

          k = 0.3750 0.6250 0.6250 (   364 PWs)   bands (ev):

    -3.5916  -0.7986   3.5617   4.2690

          k =-0.1250-0.8750 0.1250 (   364 PWs)   bands (ev):

    -2.7353  -0.9646   2.4946   3.1972

          k =-0.1250-0.3750 0.1250 (   358 PWs)   bands (ev):

    -5.1874   2.5787   4.5135   4.5655

          k =-0.3750 0.3750 0.3750 (   359 PWs)   bands (ev):

    -4.2783  -0.0243   4.7217   4.7217

          k =-0.3750 0.8750 0.3750 (   369 PWs)   bands (ev):

    -3.1052  -0.7412   1.9509   3.9599

          k = 0.3750-0.3750 1.1250 (   369 PWs)   bands (ev):

    -3.1052  -0.7412   1.9509   3.9599

          k = 0.3750 0.1250 1.1250 (   368 PWs)   bands (ev):

    -2.5774  -1.0572   1.9027   2.9509

          k =-0.1250-0.1250 0.1250 (   353 PWs)   bands (ev):

    -5.7049   4.1874   5.4987   5.4987

          k =-0.1250 0.3750 0.1250 (   358 PWs)   bands (ev):

    -5.1874   2.5787   4.5135   4.5655

          k = 0.1250-0.3750 0.3750 (   362 PWs)   bands (ev):

    -4.6998   1.2297   3.5526   5.0222

          k = 0.1250 0.1250 0.3750 (   358 PWs)   bands (ev):

    -5.1874   2.5787   4.5135   4.5655

          k = 0.3750-0.1250 0.3750 (   362 PWs)   bands (ev):

    -4.6998   1.2297   3.5526   5.0222

          k = 0.3750 0.3750 0.3750 (   359 PWs)   bands (ev):

    -4.2783  -0.0243   4.7217   4.7217

          k = 0.3750 0.1250 0.3750 (   362 PWs)   bands (ev):

    -4.6998   1.2297   3.5526   5.0222

          k = 0.3750 0.6250 0.3750 (   364 PWs)   bands (ev):

    -3.5916  -0.7986   3.5617   4.2690

          k =-0.6250 0.3750-0.3750 (   364 PWs)   bands (ev):

    -3.5916  -0.7986   3.5617   4.2690

          k =-0.6250 0.8750-0.3750 (   365 PWs)   bands (ev):

    -3.7730   0.0306   2.5851   3.9267

          k =-0.3750 0.6250-0.3750 (   364 PWs)   bands (ev):

    -3.5916  -0.7986   3.5617   4.2690

          k =-0.3750 1.1250-0.3750 (   369 PWs)   bands (ev):

    -3.1052  -0.7412   1.9509   3.9599

          k =-0.3750-0.6250-0.3750 (   364 PWs)   bands (ev):

    -3.5916  -0.7986   3.5617   4.2690

          k =-0.3750-0.1250-0.3750 (   362 PWs)   bands (ev):

    -4.6998   1.2297   3.5526   5.0222

          k =-0.3750 0.1250-0.1250 (   358 PWs)   bands (ev):

    -5.1874   2.5787   4.5135   4.5655

          k =-0.3750 0.6250-0.1250 (   365 PWs)   bands (ev):

    -3.7730   0.0306   2.5851   3.9267

          k =-0.1250 0.3750-0.1250 (   358 PWs)   bands (ev):

    -5.1874   2.5787   4.5135   4.5655

          k =-0.1250 0.8750-0.1250 (   364 PWs)   bands (ev):

    -2.7353  -0.9646   2.4946   3.1972

          k =-0.1250-0.3750-0.1250 (   358 PWs)   bands (ev):

    -5.1874   2.5787   4.5135   4.5655

          k =-0.1250 0.1250-0.1250 (   353 PWs)   bands (ev):

    -5.7049   4.1874   5.4987   5.4987

          k =-0.1250-0.6250 0.1250 (   357 PWs)   bands (ev):

    -4.1768   0.8736   3.2163   3.6559

          k =-0.1250-0.1250 0.1250 (   353 PWs)   bands (ev):

    -5.7049   4.1874   5.4987   5.4987

          k = 0.6250-0.1250-0.1250 (   357 PWs)   bands (ev):

    -4.1768   0.8736   3.2163   3.6559

          k = 0.6250 0.3750-0.1250 (   365 PWs)   bands (ev):

    -3.7730   0.0306   2.5851   3.9267

          k = 0.6250 0.1250 0.1250 (   357 PWs)   bands (ev):

    -4.1768   0.8736   3.2163   3.6559

          k = 0.6250 0.6250 0.1250 (   369 PWs)   bands (ev):

    -3.1052  -0.7412   1.9509   3.9599

          k =-0.8750 0.1250-0.6250 (   368 PWs)   bands (ev):

    -2.5774  -1.0572   1.9027   2.9509

          k =-0.8750 0.6250-0.6250 (   362 PWs)   bands (ev):

    -4.6998   1.2297   3.5526   5.0222

          k =-0.1250 0.6250-0.8750 (   368 PWs)   bands (ev):

    -2.5774  -1.0572   1.9027   2.9509

          k =-0.1250 1.1250-0.8750 (   364 PWs)   bands (ev):

    -2.7353  -0.9646   2.4946   3.1972

          k =-0.1250 0.8750-0.6250 (   368 PWs)   bands (ev):

    -2.5774  -1.0572   1.9027   2.9509

          k =-0.1250 1.3750-0.6250 (   369 PWs)   bands (ev):

    -3.1052  -0.7412   1.9509   3.9599

          k =-0.1250-0.8750-0.6250 (   368 PWs)   bands (ev):

    -2.5774  -1.0572   1.9027   2.9509

          k =-0.1250-0.3750-0.6250 (   365 PWs)   bands (ev):

    -3.7730   0.0306   2.5851   3.9267

          k = 0.8750-0.6250 0.1250 (   368 PWs)   bands (ev):

    -2.5774  -1.0572   1.9027   2.9509

          k = 0.8750-0.1250 0.1250 (   364 PWs)   bands (ev):

    -2.7353  -0.9646   2.4946   3.1972

          k =-0.6250-0.1250-0.3750 (   365 PWs)   bands (ev):

    -3.7730   0.0306   2.5851   3.9267

          k =-0.6250 0.3750-0.3750 (   364 PWs)   bands (ev):

    -3.5916  -0.7986   3.5617   4.2690

          k = 0.1250 0.3750-0.6250 (   365 PWs)   bands (ev):

    -3.7730   0.0306   2.5851   3.9267

          k = 0.1250 0.8750-0.6250 (   368 PWs)   bands (ev):

    -2.5774  -1.0572   1.9027   2.9509

          k = 0.1250 0.6250-0.3750 (   365 PWs)   bands (ev):

    -3.7730   0.0306   2.5851   3.9267

          k = 0.1250 1.1250-0.3750 (   368 PWs)   bands (ev):

    -2.5774  -1.0572   1.9027   2.9509

          k = 0.1250-0.6250-0.3750 (   365 PWs)   bands (ev):

    -3.7730   0.0306   2.5851   3.9267

          k = 0.1250-0.1250-0.3750 (   358 PWs)   bands (ev):

    -5.1874   2.5787   4.5135   4.5655

          k = 0.6250-0.3750-0.1250 (   365 PWs)   bands (ev):

    -3.7730   0.0306   2.5851   3.9267

          k = 0.6250 0.1250-0.1250 (   357 PWs)   bands (ev):

    -4.1768   0.8736   3.2163   3.6559

          k =-0.1250 0.8750 0.1250 (   364 PWs)   bands (ev):

    -2.7353  -0.9646   2.4946   3.1972

          k =-0.1250 1.3750 0.1250 (   357 PWs)   bands (ev):

    -4.1768   0.8736   3.2163   3.6559

          k =-0.8750-0.1250-0.1250 (   364 PWs)   bands (ev):

    -2.7353  -0.9646   2.4946   3.1972

          k =-0.8750 0.3750-0.1250 (   368 PWs)   bands (ev):

    -2.5774  -1.0572   1.9027   2.9509

          k =-0.8750 0.1250 0.1250 (   364 PWs)   bands (ev):

    -2.7353  -0.9646   2.4946   3.1972

          k =-0.8750 0.6250 0.1250 (   368 PWs)   bands (ev):

    -2.5774  -1.0572   1.9027   2.9509

          k =-0.3750-0.3750 0.3750 (   359 PWs)   bands (ev):

    -4.2783  -0.0243   4.7217   4.7217

          k =-0.3750 0.1250 0.3750 (   362 PWs)   bands (ev):

    -4.6998   1.2297   3.5526   5.0222

          k =-1.1250 0.3750-0.3750 (   369 PWs)   bands (ev):

    -3.1052  -0.7412   1.9509   3.9599

          k =-1.1250 0.8750-0.3750 (   357 PWs)   bands (ev):

    -4.1768   0.8736   3.2163   3.6559

          k =-0.3750 1.1250-0.3750 (   369 PWs)   bands (ev):

    -3.1052  -0.7412   1.9509   3.9599

          k =-0.3750 1.6250-0.3750 (   359 PWs)   bands (ev):

    -4.2783  -0.0243   4.7217   4.7217

          k =-0.3750-1.1250-0.3750 (   369 PWs)   bands (ev):

    -3.1052  -0.7412   1.9509   3.9599

          k =-0.3750-0.6250-0.3750 (   364 PWs)   bands (ev):

    -3.5916  -0.7986   3.5617   4.2690

     highest occupied level (ev):     5.4987

     Writing output data file silicon.10.404.save

                                                                                

     bravais-lattice index     =            2
     lattice parameter (alat)  =      10.4040  a.u.
     unit-cell volume          =     281.5406 (a.u.)^3
     number of atoms/cell      =            2
     number of atomic types    =            1
     kinetic-energy cut-off    =      18.0000  Ry
     charge density cut-off    =      72.0000  Ry
     convergence threshold     =      1.0E-12
     beta                      =       0.7000
     number of iterations used =            4
     Exchange-correlation      = SLA  PW   PBE  PBE ( 1  4  3  4 0 0)


     celldm(1)=   10.40400  celldm(2)=    0.00000  celldm(3)=    0.00000
     celldm(4)=    0.00000  celldm(5)=    0.00000  celldm(6)=    0.00000

     crystal axes: (cart. coord. in units of alat)
               a(1) = ( -0.5000  0.0000  0.5000 )  
               a(2) = (  0.0000  0.5000  0.5000 )  
               a(3) = ( -0.5000  0.5000  0.0000 )  

     reciprocal axes: (cart. coord. in units 2 pi/alat)
               b(1) = ( -1.0000 -1.0000  1.0000 )  
               b(2) = (  1.0000  1.0000  1.0000 )  
               b(3) = ( -1.0000  1.0000 -1.0000 )  


     Atoms inside the unit cell: 

     Cartesian axes

     site n.  atom      mass           positions (alat units)
        1     Si  28.0860   tau(    1) = (    0.00000    0.00000    0.00000  )
        2     Si  28.0860   tau(    2) = (    0.25000    0.25000    0.25000  )

     Computing dynamical matrix for 
                    q = (   0.0000000   0.5000000   0.0000000 )

      8 Sym.Ops. (no q -> -q+G )


     G cutoff =  197.4120  (    722 G-vectors)     FFT grid: ( 20, 20, 20)
     number of k points=    80

     PseudoPot. # 1 for Si read from file:
     /home/max/quantum_espresso/qe-6.1/pseudo/si_pbe_v1.uspp.F.UPF.txt
     MD5 check sum: a056efeee980c13900f22a371efd63c1
     Pseudo is Ultrasoft + core correction, Zval =  4.0
     Generated by new atomic code, or converted to UPF format
     Using radial grid of  899 points,  6 beta functions with: 
                l(1) =   0
                l(2) =   0
                l(3) =   1
                l(4) =   1
                l(5) =   2
                l(6) =   2
     Q(r) pseudized with  8 coefficients,  rinner =    0.900   0.900   0.900
                                                       0.900   0.900

     Mode symmetry, C_4v (4mm)  point group:


     Atomic displacements:
     There are   4 irreducible representations

     Representation     1      1 modes -A_1  G_1 D_1  To be done

     Representation     2      1 modes -B_2  G_4 D_2'  To be done

     Representation     3      2 modes -E    G_5 D_5  To be done

     Representation     4      2 modes -E    G_5 D_5  To be done



     Alpha used in Ewald sum =   0.7000
     PHONON       :    21.92s CPU        24.12s WALL



     Representation #  1 mode #   1

     Self-consistent Calculation

      iter #   1 total cpu time :    24.3 secs   av.it.:   5.8
      thresh= 1.000E-02 alpha_mix =  0.700 |ddv_scf|^2 =  2.922E-03

      iter #   2 total cpu time :    24.5 secs   av.it.:   7.6
      thresh= 5.406E-03 alpha_mix =  0.700 |ddv_scf|^2 =  3.884E-02

      iter #   3 total cpu time :    25.0 secs   av.it.:   6.7
      thresh= 1.000E-02 alpha_mix =  0.700 |ddv_scf|^2 =  1.451E-07

      iter #   4 total cpu time :    25.1 secs   av.it.:   8.1
      thresh= 3.809E-05 alpha_mix =  0.700 |ddv_scf|^2 =  1.656E-08

      iter #   5 total cpu time :    25.3 secs   av.it.:   7.7
      thresh= 1.287E-05 alpha_mix =  0.700 |ddv_scf|^2 =  6.980E-10

      iter #   6 total cpu time :    25.5 secs   av.it.:   7.9
      thresh= 2.642E-06 alpha_mix =  0.700 |ddv_scf|^2 =  2.977E-12

      iter #   7 total cpu time :    25.7 secs   av.it.:   7.9
      thresh= 1.725E-07 alpha_mix =  0.700 |ddv_scf|^2 =  5.352E-13

     End of self-consistent calculation

     Convergence has been achieved 


     Representation #  2 mode #   2

     Self-consistent Calculation

      iter #   1 total cpu time :    25.8 secs   av.it.:   4.9
      thresh= 1.000E-02 alpha_mix =  0.700 |ddv_scf|^2 =  5.140E-06

      iter #   2 total cpu time :    26.0 secs   av.it.:   8.7
      thresh= 2.267E-04 alpha_mix =  0.700 |ddv_scf|^2 =  1.345E-06

      iter #   3 total cpu time :    26.2 secs   av.it.:   8.5
      thresh= 1.160E-04 alpha_mix =  0.700 |ddv_scf|^2 =  3.173E-08

      iter #   4 total cpu time :    26.4 secs   av.it.:   8.2
      thresh= 1.781E-05 alpha_mix =  0.700 |ddv_scf|^2 =  7.784E-10

      iter #   5 total cpu time :    26.9 secs   av.it.:   8.6
      thresh= 2.790E-06 alpha_mix =  0.700 |ddv_scf|^2 =  8.730E-12

      iter #   6 total cpu time :    27.1 secs   av.it.:   7.7
      thresh= 2.955E-07 alpha_mix =  0.700 |ddv_scf|^2 =  9.329E-14

     End of self-consistent calculation

     Convergence has been achieved 


     Representation #  3 modes #   3  4

     Self-consistent Calculation

      iter #   1 total cpu time :    27.4 secs   av.it.:   5.0
      thresh= 1.000E-02 alpha_mix =  0.700 |ddv_scf|^2 =  9.392E-07

      iter #   2 total cpu time :    27.8 secs   av.it.:   9.8
      thresh= 9.691E-05 alpha_mix =  0.700 |ddv_scf|^2 =  1.192E-07

      iter #   3 total cpu time :    28.2 secs   av.it.:   9.5
      thresh= 3.453E-05 alpha_mix =  0.700 |ddv_scf|^2 =  4.946E-09

      iter #   4 total cpu time :    28.9 secs   av.it.:   8.9
      thresh= 7.033E-06 alpha_mix =  0.700 |ddv_scf|^2 =  8.847E-12

      iter #   5 total cpu time :    29.3 secs   av.it.:   9.1
      thresh= 2.974E-07 alpha_mix =  0.700 |ddv_scf|^2 =  3.021E-13

     End of self-consistent calculation

     Convergence has been achieved 


     Representation #  4 modes #   5  6

     Self-consistent Calculation

      iter #   1 total cpu time :    29.6 secs   av.it.:   5.0
      thresh= 1.000E-02 alpha_mix =  0.700 |ddv_scf|^2 =  9.431E-07

      iter #   2 total cpu time :    30.0 secs   av.it.:   9.8
      thresh= 9.711E-05 alpha_mix =  0.700 |ddv_scf|^2 =  1.197E-07

      iter #   3 total cpu time :    30.4 secs   av.it.:   9.5
      thresh= 3.460E-05 alpha_mix =  0.700 |ddv_scf|^2 =  7.380E-09

      iter #   4 total cpu time :    31.1 secs   av.it.:   8.9
      thresh= 8.591E-06 alpha_mix =  0.700 |ddv_scf|^2 =  1.550E-11

      iter #   5 total cpu time :    31.5 secs   av.it.:   9.2
      thresh= 3.937E-07 alpha_mix =  0.700 |ddv_scf|^2 =  4.596E-14

     End of self-consistent calculation

     Convergence has been achieved 

     Number of q in the star =    6
     List of q in the star:
          1   0.000000000   0.500000000   0.000000000
          2   0.000000000  -0.500000000   0.000000000
          3   0.500000000   0.000000000   0.000000000
          4   0.000000000   0.000000000   0.500000000
          5   0.000000000   0.000000000  -0.500000000
          6  -0.500000000   0.000000000   0.000000000

     Diagonalizing the dynamical matrix

     q = (    0.000000000   0.500000000   0.000000000 ) 

 **************************************************************************
     freq (    1) =       4.406176 [THz] =     146.974217 [cm-1]
     freq (    2) =       4.406176 [THz] =     146.974217 [cm-1]
     freq (    3) =       7.005260 [THz] =     233.670307 [cm-1]
     freq (    4) =      14.204496 [THz] =     473.811001 [cm-1]
     freq (    5) =      14.204496 [THz] =     473.811001 [cm-1]
     freq (    6) =      14.912923 [THz] =     497.441581 [cm-1]
 **************************************************************************

     Mode symmetry, C_4v (4mm)  point group:

     freq (  1 -  2) =        147.0  [cm-1]   --> E    G_5 D_5       
     freq (  3 -  3) =        233.7  [cm-1]   --> A_1  G_1 D_1       
     freq (  4 -  5) =        473.8  [cm-1]   --> E    G_5 D_5       
     freq (  6 -  6) =        497.4  [cm-1]   --> B_2  G_4 D_2'      

     Calculation of q =    0.7500000  -0.2500000   0.7500000

   Info: using nr1, nr2, nr3 values from input

   Info: using nr1, nr2, nr3 values from input

     Parallelization info
     --------------------
     sticks:   dense  smooth     PW     G-vecs:    dense   smooth      PW
     Min          65      65     30                  722      722     216
     Max          67      67     31                  723      723     218
     Sum         265     265    121                 2891     2891     869



     bravais-lattice index     =            2
     lattice parameter (alat)  =      10.4040  a.u.
     unit-cell volume          =     281.5406 (a.u.)^3
     number of atoms/cell      =            2
     number of atomic types    =            1
     number of electrons       =         8.00
     number of Kohn-Sham states=            4
     kinetic-energy cutoff     =      18.0000  Ry
     charge density cutoff     =      72.0000  Ry
     Exchange-correlation      = SLA  PW   PBE  PBE ( 1  4  3  4 0 0)

     celldm(1)=  10.404000  celldm(2)=   0.000000  celldm(3)=   0.000000
     celldm(4)=   0.000000  celldm(5)=   0.000000  celldm(6)=   0.000000

     crystal axes: (cart. coord. in units of alat)
               a(1) = (  -0.500000   0.000000   0.500000 )  
               a(2) = (   0.000000   0.500000   0.500000 )  
               a(3) = (  -0.500000   0.500000   0.000000 )  

     reciprocal axes: (cart. coord. in units 2 pi/alat)
               b(1) = ( -1.000000 -1.000000  1.000000 )  
               b(2) = (  1.000000  1.000000  1.000000 )  
               b(3) = ( -1.000000  1.000000 -1.000000 )  


     PseudoPot. # 1 for Si read from file:
     /home/max/quantum_espresso/qe-6.1/pseudo/si_pbe_v1.uspp.F.UPF.txt
     MD5 check sum: a056efeee980c13900f22a371efd63c1
     Pseudo is Ultrasoft + core correction, Zval =  4.0
     Generated by new atomic code, or converted to UPF format
     Using radial grid of  899 points,  6 beta functions with: 
                l(1) =   0
                l(2) =   0
                l(3) =   1
                l(4) =   1
                l(5) =   2
                l(6) =   2
     Q(r) pseudized with  8 coefficients,  rinner =    0.900   0.900   0.900
                                                       0.900   0.900

     atomic species   valence    mass     pseudopotential
        Si             4.00    28.08600     Si( 1.00)

     48 Sym. Ops., with inversion, found



   Cartesian axes

     site n.     atom                  positions (alat units)
         1           Si  tau(   1) = (   0.0000000   0.0000000   0.0000000  )
         2           Si  tau(   2) = (   0.2500000   0.2500000   0.2500000  )

     number of k points=   288

     Number of k-points >= 100: set verbosity='high' to print them.

     Dense  grid:     2891 G-vectors     FFT dimensions: (  20,  20,  20)

     Estimated max dynamical RAM per process >       0.33MB

     Estimated total allocated dynamical RAM >       1.33MB

     Check: negative/imaginary core charge=   -0.000006    0.000000

     The potential is recalculated from file :
     ./_ph0/silicon.10.404.save/charge-density.dat

     Starting wfc are    8 atomic wfcs

     Band Structure Calculation
     Davidson diagonalization with overlap

     ethr =  1.25E-10,  avg # of iterations = 11.6

     total cpu time spent up to now is        4.2 secs

     End of band structure calculation

     Number of k-points >= 100: set verbosity='high' to print the bands.

     highest occupied level (ev):     5.4987

     Writing output data file silicon.10.404.save

                                                                                

     bravais-lattice index     =            2
     lattice parameter (alat)  =      10.4040  a.u.
     unit-cell volume          =     281.5406 (a.u.)^3
     number of atoms/cell      =            2
     number of atomic types    =            1
     kinetic-energy cut-off    =      18.0000  Ry
     charge density cut-off    =      72.0000  Ry
     convergence threshold     =      1.0E-12
     beta                      =       0.7000
     number of iterations used =            4
     Exchange-correlation      = SLA  PW   PBE  PBE ( 1  4  3  4 0 0)


     celldm(1)=   10.40400  celldm(2)=    0.00000  celldm(3)=    0.00000
     celldm(4)=    0.00000  celldm(5)=    0.00000  celldm(6)=    0.00000

     crystal axes: (cart. coord. in units of alat)
               a(1) = ( -0.5000  0.0000  0.5000 )  
               a(2) = (  0.0000  0.5000  0.5000 )  
               a(3) = ( -0.5000  0.5000  0.0000 )  

     reciprocal axes: (cart. coord. in units 2 pi/alat)
               b(1) = ( -1.0000 -1.0000  1.0000 )  
               b(2) = (  1.0000  1.0000  1.0000 )  
               b(3) = ( -1.0000  1.0000 -1.0000 )  


     Atoms inside the unit cell: 

     Cartesian axes

     site n.  atom      mass           positions (alat units)
        1     Si  28.0860   tau(    1) = (    0.00000    0.00000    0.00000  )
        2     Si  28.0860   tau(    2) = (    0.25000    0.25000    0.25000  )

     Computing dynamical matrix for 
                    q = (   0.7500000  -0.2500000   0.7500000 )

      2 Sym.Ops. (no q -> -q+G )


     G cutoff =  197.4120  (    723 G-vectors)     FFT grid: ( 20, 20, 20)
     number of k points=   288

     PseudoPot. # 1 for Si read from file:
     /home/max/quantum_espresso/qe-6.1/pseudo/si_pbe_v1.uspp.F.UPF.txt
     MD5 check sum: a056efeee980c13900f22a371efd63c1
     Pseudo is Ultrasoft + core correction, Zval =  4.0
     Generated by new atomic code, or converted to UPF format
     Using radial grid of  899 points,  6 beta functions with: 
                l(1) =   0
                l(2) =   0
                l(3) =   1
                l(4) =   1
                l(5) =   2
                l(6) =   2
     Q(r) pseudized with  8 coefficients,  rinner =    0.900   0.900   0.900
                                                       0.900   0.900

     Mode symmetry, C_s (m)     point group:


     Atomic displacements:
     There are   6 irreducible representations

     Representation     1      1 modes -A'  To be done

     Representation     2      1 modes -A'  To be done

     Representation     3      1 modes -A'  To be done

     Representation     4      1 modes -A'  To be done

     Representation     5      1 modes -A''  To be done

     Representation     6      1 modes -A''  To be done



     Alpha used in Ewald sum =   0.7000
     PHONON       :    31.13s CPU        34.31s WALL



     Representation #  1 mode #   1

     Self-consistent Calculation

      iter #   1 total cpu time :    35.1 secs   av.it.:   5.3
      thresh= 1.000E-02 alpha_mix =  0.700 |ddv_scf|^2 =  6.038E-05

      iter #   2 total cpu time :    35.8 secs   av.it.:   8.9
      thresh= 7.771E-04 alpha_mix =  0.700 |ddv_scf|^2 =  1.605E-04

      iter #   3 total cpu time :    36.4 secs   av.it.:   7.6
      thresh= 1.267E-03 alpha_mix =  0.700 |ddv_scf|^2 =  1.128E-06

      iter #   4 total cpu time :    37.4 secs   av.it.:   8.4
      thresh= 1.062E-04 alpha_mix =  0.700 |ddv_scf|^2 =  5.821E-08

      iter #   5 total cpu time :    38.0 secs   av.it.:   8.3
      thresh= 2.413E-05 alpha_mix =  0.700 |ddv_scf|^2 =  7.343E-09

      iter #   6 total cpu time :    39.0 secs   av.it.:   8.5
      thresh= 8.569E-06 alpha_mix =  0.700 |ddv_scf|^2 =  9.938E-11

      iter #   7 total cpu time :    39.7 secs   av.it.:   8.7
      thresh= 9.969E-07 alpha_mix =  0.700 |ddv_scf|^2 =  3.424E-12

      iter #   8 total cpu time :    40.3 secs   av.it.:   8.6
      thresh= 1.850E-07 alpha_mix =  0.700 |ddv_scf|^2 =  2.268E-13

     End of self-consistent calculation

     Convergence has been achieved 


     Representation #  2 mode #   2

     Self-consistent Calculation

      iter #   1 total cpu time :    41.2 secs   av.it.:   5.4
      thresh= 1.000E-02 alpha_mix =  0.700 |ddv_scf|^2 =  1.078E-04

      iter #   2 total cpu time :    41.8 secs   av.it.:   8.7
      thresh= 1.038E-03 alpha_mix =  0.700 |ddv_scf|^2 =  3.096E-04

      iter #   3 total cpu time :    42.4 secs   av.it.:   7.4
      thresh= 1.759E-03 alpha_mix =  0.700 |ddv_scf|^2 =  8.112E-07

      iter #   4 total cpu time :    43.4 secs   av.it.:   8.5
      thresh= 9.006E-05 alpha_mix =  0.700 |ddv_scf|^2 =  5.601E-08

      iter #   5 total cpu time :    44.0 secs   av.it.:   8.2
      thresh= 2.367E-05 alpha_mix =  0.700 |ddv_scf|^2 =  1.068E-08

      iter #   6 total cpu time :    45.0 secs   av.it.:   8.5
      thresh= 1.033E-05 alpha_mix =  0.700 |ddv_scf|^2 =  1.018E-10

      iter #   7 total cpu time :    45.6 secs   av.it.:   8.7
      thresh= 1.009E-06 alpha_mix =  0.700 |ddv_scf|^2 =  3.007E-12

      iter #   8 total cpu time :    46.3 secs   av.it.:   8.7
      thresh= 1.734E-07 alpha_mix =  0.700 |ddv_scf|^2 =  7.595E-13

     End of self-consistent calculation

     Convergence has been achieved 


     Representation #  3 mode #   3

     Self-consistent Calculation

      iter #   1 total cpu time :    47.2 secs   av.it.:   5.3
      thresh= 1.000E-02 alpha_mix =  0.700 |ddv_scf|^2 =  8.468E-05

      iter #   2 total cpu time :    47.8 secs   av.it.:   8.8
      thresh= 9.202E-04 alpha_mix =  0.700 |ddv_scf|^2 =  2.267E-04

      iter #   3 total cpu time :    48.4 secs   av.it.:   7.4
      thresh= 1.506E-03 alpha_mix =  0.700 |ddv_scf|^2 =  1.381E-06

      iter #   4 total cpu time :    49.4 secs   av.it.:   8.2
      thresh= 1.175E-04 alpha_mix =  0.700 |ddv_scf|^2 =  5.798E-08

      iter #   5 total cpu time :    50.0 secs   av.it.:   8.4
      thresh= 2.408E-05 alpha_mix =  0.700 |ddv_scf|^2 =  1.096E-08

      iter #   6 total cpu time :    51.0 secs   av.it.:   8.5
      thresh= 1.047E-05 alpha_mix =  0.700 |ddv_scf|^2 =  5.924E-11

      iter #   7 total cpu time :    51.6 secs   av.it.:   8.6
      thresh= 7.697E-07 alpha_mix =  0.700 |ddv_scf|^2 =  2.266E-12

      iter #   8 total cpu time :    52.3 secs   av.it.:   8.8
      thresh= 1.505E-07 alpha_mix =  0.700 |ddv_scf|^2 =  6.129E-13

     End of self-consistent calculation

     Convergence has been achieved 


     Representation #  4 mode #   4

     Self-consistent Calculation

      iter #   1 total cpu time :    53.2 secs   av.it.:   5.2
      thresh= 1.000E-02 alpha_mix =  0.700 |ddv_scf|^2 =  3.724E-05

      iter #   2 total cpu time :    53.8 secs   av.it.:   9.0
[...]
        k(   59) = (  -0.8750000   0.1250000  -0.1250000), wk =   0.0625000
        k(   60) = (  -1.3750000  -0.8750000  -0.1250000), wk =   0.0000000
        k(   61) = (  -1.1250000   0.3750000  -0.3750000), wk =   0.0625000
        k(   62) = (  -1.6250000  -0.6250000  -0.3750000), wk =   0.0000000
        k(   63) = (  -0.3750000   0.3750000   1.1250000), wk =   0.0625000
        k(   64) = (  -0.8750000  -0.6250000   1.1250000), wk =   0.0000000

     Dense  grid:     2891 G-vectors     FFT dimensions: (  20,  20,  20)

     Estimated max dynamical RAM per process >       0.33MB

     Estimated total allocated dynamical RAM >       1.33MB

     Check: negative/imaginary core charge=   -0.000006    0.000000

     The potential is recalculated from file :
     ./_ph0/silicon.10.404.save/charge-density.dat

     Starting wfc are    8 atomic wfcs

     Band Structure Calculation
     Davidson diagonalization with overlap

     ethr =  1.25E-10,  avg # of iterations = 11.6

     total cpu time spent up to now is        6.7 secs

     End of band structure calculation

          k =-0.1250 0.1250 0.1250 (   353 PWs)   bands (ev):

    -5.7049   4.1874   5.4987   5.4987

          k =-0.6250-0.8750 0.1250 (   368 PWs)   bands (ev):

    -2.5774  -1.0572   1.9027   2.9509

          k =-0.3750 0.3750-0.1250 (   362 PWs)   bands (ev):

    -4.6998   1.2297   3.5526   5.0222

          k =-0.8750-0.6250-0.1250 (   368 PWs)   bands (ev):

    -2.5774  -1.0572   1.9027   2.9509

          k = 0.3750-0.3750 0.6250 (   364 PWs)   bands (ev):

    -3.5916  -0.7986   3.5617   4.2690

          k =-0.1250-1.3750 0.6250 (   369 PWs)   bands (ev):

    -3.1052  -0.7412   1.9509   3.9599

          k = 0.1250-0.1250 0.3750 (   358 PWs)   bands (ev):

    -5.1874   2.5787   4.5135   4.5655

          k =-0.3750-1.1250 0.3750 (   369 PWs)   bands (ev):

    -3.1052  -0.7412   1.9509   3.9599

          k =-0.1250 0.6250 0.1250 (   357 PWs)   bands (ev):

    -4.1768   0.8736   3.2163   3.6559

          k =-0.6250-0.3750 0.1250 (   365 PWs)   bands (ev):

    -3.7730   0.0306   2.5851   3.9267

          k = 0.6250-0.1250 0.8750 (   368 PWs)   bands (ev):

    -2.5774  -1.0572   1.9027   2.9509

          k = 0.1250-1.1250 0.8750 (   364 PWs)   bands (ev):

    -2.7353  -0.9646   2.4946   3.1972

          k = 0.3750 0.1250 0.6250 (   365 PWs)   bands (ev):

    -3.7730   0.0306   2.5851   3.9267

          k =-0.1250-0.8750 0.6250 (   368 PWs)   bands (ev):

    -2.5774  -1.0572   1.9027   2.9509

          k =-0.1250-0.8750 0.1250 (   364 PWs)   bands (ev):

    -2.7353  -0.9646   2.4946   3.1972

          k =-0.6250-1.8750 0.1250 (   357 PWs)   bands (ev):

    -4.1768   0.8736   3.2163   3.6559

          k =-0.3750 0.3750 0.3750 (   359 PWs)   bands (ev):

    -4.2783  -0.0243   4.7217   4.7217

          k =-0.8750-0.6250 0.3750 (   365 PWs)   bands (ev):

    -3.7730   0.0306   2.5851   3.9267

          k = 0.3750-0.3750 1.1250 (   369 PWs)   bands (ev):

    -3.1052  -0.7412   1.9509   3.9599

          k =-0.1250-1.3750 1.1250 (   368 PWs)   bands (ev):

    -2.5774  -1.0572   1.9027   2.9509

          k = 0.1250-0.3750 0.3750 (   362 PWs)   bands (ev):

    -4.6998   1.2297   3.5526   5.0222

          k =-0.3750-1.3750 0.3750 (   364 PWs)   bands (ev):

    -3.5916  -0.7986   3.5617   4.2690

          k = 0.3750-0.3750-0.1250 (   362 PWs)   bands (ev):

    -4.6998   1.2297   3.5526   5.0222

          k =-0.1250-1.3750-0.1250 (   357 PWs)   bands (ev):

    -4.1768   0.8736   3.2163   3.6559

          k =-0.6250 0.3750-0.3750 (   364 PWs)   bands (ev):

    -3.5916  -0.7986   3.5617   4.2690

          k =-1.1250-0.6250-0.3750 (   365 PWs)   bands (ev):

    -3.7730   0.0306   2.5851   3.9267

          k =-0.3750 0.3750 0.6250 (   364 PWs)   bands (ev):

    -3.5916  -0.7986   3.5617   4.2690

          k =-0.8750-0.6250 0.6250 (   362 PWs)   bands (ev):

    -4.6998   1.2297   3.5526   5.0222

          k =-0.3750 0.1250-0.1250 (   358 PWs)   bands (ev):

    -5.1874   2.5787   4.5135   4.5655

          k =-0.8750-0.8750-0.1250 (   364 PWs)   bands (ev):

    -2.7353  -0.9646   2.4946   3.1972

          k =-0.1250 0.1250 0.3750 (   358 PWs)   bands (ev):

    -5.1874   2.5787   4.5135   4.5655

          k =-0.6250-0.8750 0.3750 (   365 PWs)   bands (ev):

    -3.7730   0.0306   2.5851   3.9267

          k = 0.1250 0.6250-0.1250 (   357 PWs)   bands (ev):

    -4.1768   0.8736   3.2163   3.6559

          k =-0.3750-0.3750-0.1250 (   362 PWs)   bands (ev):

    -4.6998   1.2297   3.5526   5.0222

          k = 0.6250 0.1250-0.1250 (   357 PWs)   bands (ev):

    -4.1768   0.8736   3.2163   3.6559

          k = 0.1250-0.8750-0.1250 (   364 PWs)   bands (ev):

    -2.7353  -0.9646   2.4946   3.1972

          k =-0.8750 0.1250-0.6250 (   368 PWs)   bands (ev):

    -2.5774  -1.0572   1.9027   2.9509

          k =-1.3750-0.8750-0.6250 (   362 PWs)   bands (ev):

    -4.6998   1.2297   3.5526   5.0222

          k = 0.8750-0.1250 0.6250 (   368 PWs)   bands (ev):

    -2.5774  -1.0572   1.9027   2.9509

          k = 0.3750-1.1250 0.6250 (   365 PWs)   bands (ev):

    -3.7730   0.0306   2.5851   3.9267

          k =-0.6250 0.1250 0.8750 (   368 PWs)   bands (ev):

    -2.5774  -1.0572   1.9027   2.9509

          k =-1.1250-0.8750 0.8750 (   353 PWs)   bands (ev):

    -5.7049   4.1874   5.4987   5.4987

          k =-0.1250 0.8750 0.6250 (   368 PWs)   bands (ev):

    -2.5774  -1.0572   1.9027   2.9509

          k =-0.6250-0.1250 0.6250 (   369 PWs)   bands (ev):

    -3.1052  -0.7412   1.9509   3.9599

          k = 0.1250 0.8750-0.6250 (   368 PWs)   bands (ev):

    -2.5774  -1.0572   1.9027   2.9509

          k =-0.3750-0.1250-0.6250 (   365 PWs)   bands (ev):

    -3.7730   0.0306   2.5851   3.9267

          k =-0.6250-0.1250-0.3750 (   365 PWs)   bands (ev):

    -3.7730   0.0306   2.5851   3.9267

          k =-1.1250-1.1250-0.3750 (   357 PWs)   bands (ev):

    -4.1768   0.8736   3.2163   3.6559

          k = 0.6250 0.1250 0.3750 (   365 PWs)   bands (ev):

    -3.7730   0.0306   2.5851   3.9267

          k = 0.1250-0.8750 0.3750 (   368 PWs)   bands (ev):

    -2.5774  -1.0572   1.9027   2.9509

          k =-0.3750-0.1250 0.6250 (   365 PWs)   bands (ev):

    -3.7730   0.0306   2.5851   3.9267

          k =-0.8750-1.1250 0.6250 (   358 PWs)   bands (ev):

    -5.1874   2.5787   4.5135   4.5655

          k = 0.1250 0.6250 0.3750 (   365 PWs)   bands (ev):

    -3.7730   0.0306   2.5851   3.9267

          k =-0.3750-0.3750 0.3750 (   359 PWs)   bands (ev):

    -4.2783  -0.0243   4.7217   4.7217

          k =-0.1250 0.6250-0.3750 (   365 PWs)   bands (ev):

    -3.7730   0.0306   2.5851   3.9267

          k =-0.6250-0.3750-0.3750 (   364 PWs)   bands (ev):

    -3.5916  -0.7986   3.5617   4.2690

          k = 0.1250-0.8750-0.1250 (   364 PWs)   bands (ev):

    -2.7353  -0.9646   2.4946   3.1972

          k =-0.3750-1.8750-0.1250 (   358 PWs)   bands (ev):

    -5.1874   2.5787   4.5135   4.5655

          k =-0.8750 0.1250-0.1250 (   364 PWs)   bands (ev):

    -2.7353  -0.9646   2.4946   3.1972

          k =-1.3750-0.8750-0.1250 (   368 PWs)   bands (ev):

    -2.5774  -1.0572   1.9027   2.9509

          k =-1.1250 0.3750-0.3750 (   369 PWs)   bands (ev):

    -3.1052  -0.7412   1.9509   3.9599

          k =-1.6250-0.6250-0.3750 (   364 PWs)   bands (ev):

    -3.5916  -0.7986   3.5617   4.2690

          k =-0.3750 0.3750 1.1250 (   369 PWs)   bands (ev):

    -3.1052  -0.7412   1.9509   3.9599

          k =-0.8750-0.6250 1.1250 (   358 PWs)   bands (ev):

    -5.1874   2.5787   4.5135   4.5655

     highest occupied level (ev):     5.4987

     Writing output data file silicon.10.404.save

                                                                                

     bravais-lattice index     =            2
     lattice parameter (alat)  =      10.4040  a.u.
     unit-cell volume          =     281.5406 (a.u.)^3
     number of atoms/cell      =            2
     number of atomic types    =            1
     kinetic-energy cut-off    =      18.0000  Ry
     charge density cut-off    =      72.0000  Ry
     convergence threshold     =      1.0E-12
     beta                      =       0.7000
     number of iterations used =            4
     Exchange-correlation      = SLA  PW   PBE  PBE ( 1  4  3  4 0 0)


     celldm(1)=   10.40400  celldm(2)=    0.00000  celldm(3)=    0.00000
     celldm(4)=    0.00000  celldm(5)=    0.00000  celldm(6)=    0.00000

     crystal axes: (cart. coord. in units of alat)
               a(1) = ( -0.5000  0.0000  0.5000 )  
               a(2) = (  0.0000  0.5000  0.5000 )  
               a(3) = ( -0.5000  0.5000  0.0000 )  

     reciprocal axes: (cart. coord. in units 2 pi/alat)
               b(1) = ( -1.0000 -1.0000  1.0000 )  
               b(2) = (  1.0000  1.0000  1.0000 )  
               b(3) = ( -1.0000  1.0000 -1.0000 )  


     Atoms inside the unit cell: 

     Cartesian axes

     site n.  atom      mass           positions (alat units)
        1     Si  28.0860   tau(    1) = (    0.00000    0.00000    0.00000  )
        2     Si  28.0860   tau(    2) = (    0.25000    0.25000    0.25000  )

     Computing dynamical matrix for 
                    q = (  -0.5000000  -1.0000000   0.0000000 )

      8 Sym.Ops. (no q -> -q+G )


     G cutoff =  197.4120  (    722 G-vectors)     FFT grid: ( 20, 20, 20)
     number of k points=    64

     PseudoPot. # 1 for Si read from file:
     /home/max/quantum_espresso/qe-6.1/pseudo/si_pbe_v1.uspp.F.UPF.txt
     MD5 check sum: a056efeee980c13900f22a371efd63c1
     Pseudo is Ultrasoft + core correction, Zval =  4.0
     Generated by new atomic code, or converted to UPF format
     Using radial grid of  899 points,  6 beta functions with: 
                l(1) =   0
                l(2) =   0
                l(3) =   1
                l(4) =   1
                l(5) =   2
                l(6) =   2
     Q(r) pseudized with  8 coefficients,  rinner =    0.900   0.900   0.900
                                                       0.900   0.900


     Atomic displacements:
     There are   3 irreducible representations

     Representation     1      2 modes -  To be done

     Representation     2      2 modes -  To be done

     Representation     3      2 modes -  To be done



     Alpha used in Ewald sum =   0.7000
     PHONON       :  1m18.80s CPU     1m26.78s WALL



     Representation #  1 modes #   1  2

     Self-consistent Calculation

      iter #   1 total cpu time :    87.0 secs   av.it.:   5.3
      thresh= 1.000E-02 alpha_mix =  0.700 |ddv_scf|^2 =  6.354E-06

      iter #   2 total cpu time :    87.3 secs   av.it.:   9.8
      thresh= 2.521E-04 alpha_mix =  0.700 |ddv_scf|^2 =  3.417E-06

      iter #   3 total cpu time :    87.7 secs   av.it.:   9.2
      thresh= 1.849E-04 alpha_mix =  0.700 |ddv_scf|^2 =  8.560E-09

      iter #   4 total cpu time :    88.0 secs   av.it.:   9.1
      thresh= 9.252E-06 alpha_mix =  0.700 |ddv_scf|^2 =  3.005E-11

      iter #   5 total cpu time :    88.3 secs   av.it.:   8.9
      thresh= 5.482E-07 alpha_mix =  0.700 |ddv_scf|^2 =  7.335E-13

     End of self-consistent calculation

     Convergence has been achieved 


     Representation #  2 modes #   3  4

     Self-consistent Calculation

      iter #   1 total cpu time :    88.6 secs   av.it.:   5.2
      thresh= 1.000E-02 alpha_mix =  0.700 |ddv_scf|^2 =  9.696E-06

      iter #   2 total cpu time :    89.2 secs   av.it.:   9.9
      thresh= 3.114E-04 alpha_mix =  0.700 |ddv_scf|^2 =  1.320E-05

      iter #   3 total cpu time :    89.5 secs   av.it.:   9.1
      thresh= 3.633E-04 alpha_mix =  0.700 |ddv_scf|^2 =  1.020E-08

      iter #   4 total cpu time :    89.8 secs   av.it.:   8.9
      thresh= 1.010E-05 alpha_mix =  0.700 |ddv_scf|^2 =  9.736E-11

      iter #   5 total cpu time :    90.2 secs   av.it.:   9.4
      thresh= 9.867E-07 alpha_mix =  0.700 |ddv_scf|^2 =  1.870E-12

      iter #   6 total cpu time :    90.5 secs   av.it.:   9.1
      thresh= 1.367E-07 alpha_mix =  0.700 |ddv_scf|^2 =  1.619E-14

     End of self-consistent calculation

     Convergence has been achieved 


     Representation #  3 modes #   5  6

     Self-consistent Calculation

      iter #   1 total cpu time :    91.1 secs   av.it.:   5.1
      thresh= 1.000E-02 alpha_mix =  0.700 |ddv_scf|^2 =  2.633E-06

      iter #   2 total cpu time :    91.4 secs   av.it.:   9.7
      thresh= 1.623E-04 alpha_mix =  0.700 |ddv_scf|^2 =  1.441E-06

      iter #   3 total cpu time :    91.8 secs   av.it.:   9.0
      thresh= 1.201E-04 alpha_mix =  0.700 |ddv_scf|^2 =  8.133E-09

      iter #   4 total cpu time :    92.1 secs   av.it.:   8.7
      thresh= 9.018E-06 alpha_mix =  0.700 |ddv_scf|^2 =  4.998E-11

      iter #   5 total cpu time :    92.4 secs   av.it.:   9.1
      thresh= 7.070E-07 alpha_mix =  0.700 |ddv_scf|^2 =  7.489E-13

     End of self-consistent calculation

     Convergence has been achieved 

     Number of q in the star =    6
     List of q in the star:
          1  -0.500000000  -1.000000000   0.000000000
          2   0.000000000   1.000000000   0.500000000
          3   0.000000000  -1.000000000  -0.500000000
          4   0.500000000   1.000000000   0.000000000
          5  -1.000000000  -0.500000000   0.000000000
          6   0.000000000  -0.500000000  -1.000000000

     Diagonalizing the dynamical matrix

     q = (   -0.500000000  -1.000000000   0.000000000 ) 

 **************************************************************************
     freq (    1) =       7.808653 [THz] =     260.468637 [cm-1]
     freq (    2) =       7.808653 [THz] =     260.468637 [cm-1]
     freq (    3) =      11.018148 [THz] =     367.525855 [cm-1]
     freq (    4) =      11.018148 [THz] =     367.525855 [cm-1]
     freq (    5) =      13.738771 [THz] =     458.276084 [cm-1]
     freq (    6) =      13.738771 [THz] =     458.276084 [cm-1]
 **************************************************************************

     init_run     :      0.53s CPU      0.54s WALL (       7 calls)
     electrons    :      5.05s CPU      5.43s WALL (       7 calls)

     Called by init_run:
     wfcinit      :      0.00s CPU      0.00s WALL (       7 calls)
     potinit      :      0.02s CPU      0.02s WALL (       7 calls)

     Called by electrons:
     c_bands      :      5.04s CPU      5.42s WALL (       7 calls)
     v_of_rho     :      0.01s CPU      0.01s WALL (       8 calls)
     newd         :      0.03s CPU      0.03s WALL (       8 calls)

     Called by c_bands:
     init_us_2    :      0.68s CPU      0.72s WALL (   17588 calls)
     cegterg      :      4.28s CPU      4.56s WALL (     796 calls)

     Called by sum_band:

     Called by *egterg:
     h_psi        :     45.36s CPU     49.78s WALL (  152210 calls)
     s_psi        :      5.81s CPU      6.28s WALL (  309140 calls)
     g_psi        :      0.03s CPU      0.03s WALL (    9268 calls)
     cdiaghg      :      0.51s CPU      0.55s WALL (   10064 calls)

     Called by h_psi:
     h_psi:pot    :     45.18s CPU     49.59s WALL (  152210 calls)
     h_psi:calbec :      4.92s CPU      5.50s WALL (  152210 calls)
     vloc_psi     :     37.14s CPU     40.77s WALL (  152210 calls)
     add_vuspsi   :      2.90s CPU      3.10s WALL (  152210 calls)

     General routines
     calbec       :     10.91s CPU     12.28s WALL (  345512 calls)
     fft          :      0.37s CPU      0.43s WALL (    5239 calls)
     ffts         :      0.20s CPU      0.26s WALL (    2748 calls)
     fftw         :     43.27s CPU     47.52s WALL ( 1378448 calls)
     davcio       :      0.33s CPU      0.35s WALL (   79045 calls)

     Parallel routines
     fft_scatter  :     11.67s CPU     13.62s WALL ( 1386435 calls)

     PHONON       :  1m23.77s CPU     1m32.38s WALL

     INITIALIZATION: 
     phq_setup    :      0.05s CPU      0.05s WALL (       8 calls)
     phq_init     :      1.96s CPU      2.02s WALL (       8 calls)

     phq_init     :      1.96s CPU      2.02s WALL (       8 calls)
     set_drhoc    :      0.29s CPU      0.31s WALL (      24 calls)
     init_vloc    :      0.01s CPU      0.01s WALL (       8 calls)
     init_us_1    :      0.49s CPU      0.49s WALL (       8 calls)
     newd         :      0.03s CPU      0.03s WALL (       8 calls)
     dvanqq       :      0.23s CPU      0.24s WALL (       8 calls)
     drho         :      0.98s CPU      1.00s WALL (       8 calls)

     DYNAMICAL MATRIX:
     dynmat0      :      0.49s CPU      0.49s WALL (       8 calls)
     phqscf       :     73.58s CPU     81.47s WALL (       8 calls)
     dynmatrix    :      0.01s CPU      0.02s WALL (       8 calls)

     phqscf       :     73.58s CPU     81.47s WALL (       8 calls)
     solve_linter :     72.89s CPU     80.72s WALL (      32 calls)
     drhodv       :      0.48s CPU      0.53s WALL (      32 calls)

     dynmat0      :      0.49s CPU      0.49s WALL (       8 calls)
     dynmat_us    :      0.27s CPU      0.27s WALL (       8 calls)
     d2ionq       :      0.01s CPU      0.01s WALL (       8 calls)
     dynmatcc     :      0.21s CPU      0.21s WALL (       8 calls)

     dynmat_us    :      0.27s CPU      0.27s WALL (       8 calls)
     addusdynmat  :      0.00s CPU      0.00s WALL (       8 calls)

     phqscf       :     73.58s CPU     81.47s WALL (       8 calls)
     solve_linter :     72.89s CPU     80.72s WALL (      32 calls)

     solve_linter :     72.89s CPU     80.72s WALL (      32 calls)
     dvqpsi_us    :      1.78s CPU      2.07s WALL (    2508 calls)
     ortho        :      1.24s CPU      1.48s WALL (   15550 calls)
     cgsolve      :     57.21s CPU     63.46s WALL (   15550 calls)
     incdrhoscf   :      5.06s CPU      5.65s WALL (   15550 calls)
     addusddens   :      1.16s CPU      1.21s WALL (     228 calls)
     vpsifft      :      3.50s CPU      3.78s WALL (   12922 calls)
     dv_of_drho   :      0.21s CPU      0.23s WALL (     295 calls)
     mix_pot      :      0.05s CPU      0.06s WALL (     201 calls)
     psymdvscf    :      0.83s CPU      0.87s WALL (     196 calls)
     newdq        :      1.24s CPU      1.30s WALL (     201 calls)
     adddvscf     :      0.46s CPU      0.50s WALL (   13042 calls)
     drhodvus     :      0.00s CPU      0.00s WALL (      32 calls)

     dvqpsi_us    :      1.78s CPU      2.07s WALL (    2508 calls)
     dvqpsi_us_on :      0.81s CPU      0.95s WALL (    2508 calls)

     cgsolve      :     57.21s CPU     63.46s WALL (   15550 calls)
     ch_psi       :     54.40s CPU     59.99s WALL (  141350 calls)

     ch_psi       :     54.40s CPU     59.99s WALL (  141350 calls)
     h_psi        :     45.36s CPU     49.78s WALL (  152210 calls)
     last         :      9.45s CPU     10.61s WALL (  141350 calls)

     h_psi        :     45.36s CPU     49.78s WALL (  152210 calls)
     add_vuspsi   :      2.90s CPU      3.10s WALL (  152210 calls)

     incdrhoscf   :      5.06s CPU      5.65s WALL (   15550 calls)
     addusdbec    :      0.78s CPU      0.88s WALL (   17998 calls)

     drhodvus     :      0.00s CPU      0.00s WALL (      32 calls)

      General routines
     calbec       :     10.91s CPU     12.28s WALL (  345512 calls)
     fft          :      0.37s CPU      0.43s WALL (    5239 calls)
     ffts         :      0.20s CPU      0.26s WALL (    2748 calls)
     fftw         :     43.27s CPU     47.52s WALL ( 1378448 calls)
     davcio       :      0.33s CPU      0.35s WALL (   79045 calls)
     write_rec    :      0.20s CPU      0.22s WALL (     233 calls)


     PHONON       :  1m23.77s CPU     1m32.39s WALL


   This run was terminated on:  17:43:16   9Nov2017            

=------------------------------------------------------------------------------=
   JOB DONE.
=------------------------------------------------------------------------------=
