
     Program PWSCF v.6.1 (svn rev. 13369) starts on 10Nov2017 at 10: 3:48 

     This program is part of the open-source Quantum ESPRESSO suite
     for quantum simulation of materials; please cite
         "P. Giannozzi et al., J. Phys.:Condens. Matter 21 395502 (2009);
          URL http://www.quantum-espresso.org", 
     in publications or presentations arising from this work. More details at
     http://www.quantum-espresso.org/quote

     Parallel version (MPI), running on     4 processors
     R & G space division:  proc/nbgrp/npool/nimage =       4
     Waiting for input...
     Reading input from standard input
     Message from routine read_cards :
     DEPRECATED: no units specified in ATOMIC_POSITIONS card
     Message from routine read_cards :
     ATOMIC_POSITIONS: units set to alat

     Current dimensions of program PWSCF are:
     Max number of different atomic species (ntypx) = 10
     Max number of k-points (npk) =  40000
     Max angular momentum in pseudopotentials (lmaxx) =  3

     Subspace diagonalization in iterative solution of the eigenvalue problem:
     a serial algorithm will be used


     Parallelization info
     --------------------
     sticks:   dense  smooth     PW     G-vecs:    dense   smooth      PW
     Min         133      66     22                 2024      722     152
     Max         134      67     23                 2025      724     153
     Sum         535     265     91                 8099     2891     609



     bravais-lattice index     =            2
     lattice parameter (alat)  =      10.4060  a.u.
     unit-cell volume          =     281.7030 (a.u.)^3
     number of atoms/cell      =            2
     number of atomic types    =            1
     number of electrons       =         8.00
     number of Kohn-Sham states=            4
     kinetic-energy cutoff     =      18.0000  Ry
     charge density cutoff     =     144.0000  Ry
     convergence threshold     =      1.0E-08
     mixing beta               =       0.7000
     number of iterations used =            8  plain     mixing
     Exchange-correlation      = SLA  PW   PBE  PBE ( 1  4  3  4 0 0)

     celldm(1)=  10.406000  celldm(2)=   0.000000  celldm(3)=   0.000000
     celldm(4)=   0.000000  celldm(5)=   0.000000  celldm(6)=   0.000000

     crystal axes: (cart. coord. in units of alat)
               a(1) = (  -0.500000   0.000000   0.500000 )  
               a(2) = (   0.000000   0.500000   0.500000 )  
               a(3) = (  -0.500000   0.500000   0.000000 )  

     reciprocal axes: (cart. coord. in units 2 pi/alat)
               b(1) = ( -1.000000 -1.000000  1.000000 )  
               b(2) = (  1.000000  1.000000  1.000000 )  
               b(3) = ( -1.000000  1.000000 -1.000000 )  


     PseudoPot. # 1 for Si read from file:
     /home/max/quantum_espresso/qe-6.1/pseudo/si_pbe_v1.uspp.F.UPF.txt
     MD5 check sum: a056efeee980c13900f22a371efd63c1
     Pseudo is Ultrasoft + core correction, Zval =  4.0
     Generated by new atomic code, or converted to UPF format
     Using radial grid of  899 points,  6 beta functions with: 
                l(1) =   0
                l(2) =   0
                l(3) =   1
                l(4) =   1
                l(5) =   2
                l(6) =   2
     Q(r) pseudized with  8 coefficients,  rinner =    0.900   0.900   0.900
                                                       0.900   0.900

     atomic species   valence    mass     pseudopotential
        Si             4.00    28.08600     Si( 1.00)

     24 Sym. Ops. (no inversion) found
          (note: 24 additional sym.ops. were found but ignored
           their fractional translations are incommensurate with FFT grid)


   Cartesian axes

     site n.     atom                  positions (alat units)
         1           Si  tau(   1) = (   0.0000000   0.0000000   0.0000000  )
         2           Si  tau(   2) = (   0.2500000   0.2500000   0.2500000  )

     number of k points=    60
                       cart. coord. in units 2pi/alat
        k(    1) = (  -0.0625000   0.0625000   0.0625000), wk =   0.0078125
        k(    2) = (  -0.1875000   0.1875000  -0.0625000), wk =   0.0234375
        k(    3) = (  -0.3125000   0.3125000  -0.1875000), wk =   0.0234375
        k(    4) = (  -0.4375000   0.4375000  -0.3125000), wk =   0.0234375
        k(    5) = (   0.4375000  -0.4375000   0.5625000), wk =   0.0234375
        k(    6) = (   0.3125000  -0.3125000   0.4375000), wk =   0.0234375
        k(    7) = (   0.1875000  -0.1875000   0.3125000), wk =   0.0234375
        k(    8) = (   0.0625000  -0.0625000   0.1875000), wk =   0.0234375
        k(    9) = (  -0.0625000   0.3125000   0.0625000), wk =   0.0234375
        k(   10) = (  -0.1875000   0.4375000  -0.0625000), wk =   0.0468750
        k(   11) = (  -0.3125000   0.5625000  -0.1875000), wk =   0.0468750
        k(   12) = (   0.5625000  -0.3125000   0.6875000), wk =   0.0468750
        k(   13) = (   0.4375000  -0.1875000   0.5625000), wk =   0.0468750
        k(   14) = (   0.3125000  -0.0625000   0.4375000), wk =   0.0468750
        k(   15) = (   0.1875000   0.0625000   0.3125000), wk =   0.0468750
        k(   16) = (  -0.0625000   0.5625000   0.0625000), wk =   0.0234375
        k(   17) = (  -0.1875000   0.6875000  -0.0625000), wk =   0.0468750
        k(   18) = (   0.6875000  -0.1875000   0.8125000), wk =   0.0468750
        k(   19) = (   0.5625000  -0.0625000   0.6875000), wk =   0.0468750
        k(   20) = (   0.4375000   0.0625000   0.5625000), wk =   0.0468750
        k(   21) = (   0.3125000   0.1875000   0.4375000), wk =   0.0468750
        k(   22) = (  -0.0625000   0.8125000   0.0625000), wk =   0.0234375
        k(   23) = (   0.8125000  -0.0625000   0.9375000), wk =   0.0468750
        k(   24) = (   0.6875000   0.0625000   0.8125000), wk =   0.0468750
        k(   25) = (   0.5625000   0.1875000   0.6875000), wk =   0.0468750
        k(   26) = (   0.4375000   0.3125000   0.5625000), wk =   0.0468750
        k(   27) = (  -0.0625000  -0.9375000   0.0625000), wk =   0.0234375
        k(   28) = (  -0.1875000  -0.8125000  -0.0625000), wk =   0.0468750
        k(   29) = (  -0.3125000  -0.6875000  -0.1875000), wk =   0.0468750
        k(   30) = (  -0.0625000  -0.6875000   0.0625000), wk =   0.0234375
        k(   31) = (  -0.1875000  -0.5625000  -0.0625000), wk =   0.0468750
        k(   32) = (  -0.0625000  -0.4375000   0.0625000), wk =   0.0234375
        k(   33) = (  -0.1875000   0.1875000   0.1875000), wk =   0.0078125
        k(   34) = (  -0.3125000   0.3125000   0.0625000), wk =   0.0234375
        k(   35) = (  -0.4375000   0.4375000  -0.0625000), wk =   0.0234375
        k(   36) = (   0.4375000  -0.4375000   0.8125000), wk =   0.0234375
        k(   37) = (   0.3125000  -0.3125000   0.6875000), wk =   0.0234375
        k(   38) = (   0.1875000  -0.1875000   0.5625000), wk =   0.0234375
        k(   39) = (  -0.1875000   0.4375000   0.1875000), wk =   0.0234375
        k(   40) = (  -0.3125000   0.5625000   0.0625000), wk =   0.0468750
        k(   41) = (   0.5625000  -0.3125000   0.9375000), wk =   0.0468750
        k(   42) = (   0.4375000  -0.1875000   0.8125000), wk =   0.0468750
        k(   43) = (   0.3125000  -0.0625000   0.6875000), wk =   0.0468750
        k(   44) = (  -0.1875000   0.6875000   0.1875000), wk =   0.0234375
        k(   45) = (   0.6875000  -0.1875000   1.0625000), wk =   0.0468750
        k(   46) = (   0.5625000  -0.0625000   0.9375000), wk =   0.0468750
        k(   47) = (   0.4375000   0.0625000   0.8125000), wk =   0.0468750
        k(   48) = (  -0.1875000  -1.0625000   0.1875000), wk =   0.0234375
        k(   49) = (  -0.3125000  -0.9375000   0.0625000), wk =   0.0468750
        k(   50) = (  -0.1875000  -0.8125000   0.1875000), wk =   0.0234375
        k(   51) = (  -0.3125000   0.3125000   0.3125000), wk =   0.0078125
        k(   52) = (  -0.4375000   0.4375000   0.1875000), wk =   0.0234375
        k(   53) = (   0.4375000  -0.4375000   1.0625000), wk =   0.0234375
        k(   54) = (   0.3125000  -0.3125000   0.9375000), wk =   0.0234375
        k(   55) = (  -0.3125000   0.5625000   0.3125000), wk =   0.0234375
        k(   56) = (   0.5625000  -0.3125000   1.1875000), wk =   0.0468750
        k(   57) = (   0.4375000  -0.1875000   1.0625000), wk =   0.0468750
        k(   58) = (  -0.3125000  -1.1875000   0.3125000), wk =   0.0234375
        k(   59) = (  -0.4375000   0.4375000   0.4375000), wk =   0.0078125
        k(   60) = (   0.4375000  -0.4375000   1.3125000), wk =   0.0234375

     Dense  grid:     8099 G-vectors     FFT dimensions: (  30,  30,  30)

     Smooth grid:     2891 G-vectors     FFT dimensions: (  20,  20,  20)

     Estimated max dynamical RAM per process >       1.73MB

     Estimated total allocated dynamical RAM >       6.94MB

     Initial potential from superposition of free atoms

     starting charge    7.99866, renormalised to    8.00000
     Starting wfc are    8 randomized atomic wfcs

     total cpu time spent up to now is        0.4 secs

     per-process dynamical memory:     8.6 Mb

     Self-consistent Calculation

     iteration #  1     ecut=    18.00 Ry     beta=0.70
     Davidson diagonalization with overlap
     ethr =  1.00E-02,  avg # of iterations =  2.0

     Threshold (ethr) on eigenvalues was too large:
     Diagonalizing with lowered threshold

     Davidson diagonalization with overlap
     ethr =  6.53E-04,  avg # of iterations =  1.0

     total cpu time spent up to now is        0.7 secs

     total energy              =     -19.18908149 Ry
     Harris-Foulkes estimate   =     -19.20065014 Ry
     estimated scf accuracy    <       0.05192416 Ry

     iteration #  2     ecut=    18.00 Ry     beta=0.70
     Davidson diagonalization with overlap
     ethr =  6.49E-04,  avg # of iterations =  1.0

     total cpu time spent up to now is        0.9 secs

     total energy              =     -19.19067116 Ry
     Harris-Foulkes estimate   =     -19.19084079 Ry
     estimated scf accuracy    <       0.00245565 Ry

     iteration #  3     ecut=    18.00 Ry     beta=0.70
     Davidson diagonalization with overlap
     ethr =  3.07E-05,  avg # of iterations =  1.9

     total cpu time spent up to now is        1.0 secs

     total energy              =     -19.19093533 Ry
     Harris-Foulkes estimate   =     -19.19094743 Ry
     estimated scf accuracy    <       0.00003846 Ry

     iteration #  4     ecut=    18.00 Ry     beta=0.70
     Davidson diagonalization with overlap
     ethr =  4.81E-07,  avg # of iterations =  2.8

     total cpu time spent up to now is        1.3 secs

     total energy              =     -19.19095942 Ry
     Harris-Foulkes estimate   =     -19.19095988 Ry
     estimated scf accuracy    <       0.00000202 Ry

     iteration #  5     ecut=    18.00 Ry     beta=0.70
     Davidson diagonalization with overlap
     ethr =  2.53E-08,  avg # of iterations =  2.1

     total cpu time spent up to now is        1.6 secs

     total energy              =     -19.19095983 Ry
     Harris-Foulkes estimate   =     -19.19095985 Ry
     estimated scf accuracy    <       0.00000004 Ry

     iteration #  6     ecut=    18.00 Ry     beta=0.70
     Davidson diagonalization with overlap
     ethr =  5.60E-10,  avg # of iterations =  2.7

     total cpu time spent up to now is        2.1 secs

     End of self-consistent calculation

          k =-0.0625 0.0625 0.0625 (   338 PWs)   bands (ev):

    -5.8589   5.2349   5.6873   5.6873

          k =-0.1875 0.1875-0.0625 (   355 PWs)   bands (ev):

    -5.5981   3.7406   4.9026   5.5696

          k =-0.3125 0.3125-0.1875 (   360 PWs)   bands (ev):

    -4.9680   1.5619   4.4214   5.1174

          k =-0.4375 0.4375-0.3125 (   364 PWs)   bands (ev):

    -4.0924  -0.2774   4.2060   4.7194

          k = 0.4375-0.4375 0.5625 (   364 PWs)   bands (ev):

    -3.6612  -0.9560   4.2526   4.5075

          k = 0.3125-0.3125 0.4375 (   357 PWs)   bands (ev):

    -4.3913   0.2657   4.5297   4.5322

          k = 0.1875-0.1875 0.3125 (   357 PWs)   bands (ev):

    -5.2148   2.2756   4.8021   4.9872

          k = 0.0625-0.0625 0.1875 (   346 PWs)   bands (ev):

    -5.7276   4.4829   5.2738   5.4223

          k =-0.0625 0.3125 0.0625 (   354 PWs)   bands (ev):

    -5.4662   3.5881   4.7304   4.8045

          k =-0.1875 0.4375-0.0625 (   358 PWs)   bands (ev):

    -4.9552   2.1133   3.7837   4.5522

          k =-0.3125 0.5625-0.1875 (   364 PWs)   bands (ev):

    -4.1339   0.3050   3.2908   4.1549

          k = 0.5625-0.3125 0.6875 (   368 PWs)   bands (ev):

    -3.3985  -0.8668   3.0053   4.0651

          k = 0.4375-0.1875 0.5625 (   364 PWs)   bands (ev):

    -3.8397  -0.1990   2.9385   4.3409

          k = 0.3125-0.0625 0.4375 (   361 PWs)   bands (ev):

    -4.7141   1.4801   3.2426   4.8341

          k = 0.1875 0.0625 0.3125 (   359 PWs)   bands (ev):

    -5.3396   2.9323   4.3400   5.1971

          k =-0.0625 0.5625 0.0625 (   357 PWs)   bands (ev):

    -4.5642   1.6034   3.6453   3.7636

          k =-0.1875 0.6875-0.0625 (   359 PWs)   bands (ev):

    -3.8317   0.3931   2.8812   3.4267

          k = 0.6875-0.1875 0.8125 (   367 PWs)   bands (ev):

    -2.9615  -0.7701   2.0638   3.3958

          k = 0.5625-0.0625 0.6875 (   369 PWs)   bands (ev):

    -3.0325  -0.6778   1.7233   3.7300

          k = 0.4375 0.0625 0.5625 (   365 PWs)   bands (ev):

    -3.9023   0.2591   2.3071   4.2984

          k = 0.3125 0.1875 0.4375 (   361 PWs)   bands (ev):

    -4.6044   0.9006   3.8889   4.7366

          k =-0.0625 0.8125 0.0625 (   364 PWs)   bands (ev):

    -3.1937  -0.4530   2.9747   3.1835

          k = 0.8125-0.0625 0.9375 (   363 PWs)   bands (ev):

    -2.3081  -1.4194   2.4366   2.9489

          k = 0.6875 0.0625 0.8125 (   369 PWs)   bands (ev):

    -2.4090  -1.2541   1.7314   3.2557

          k = 0.5625 0.1875 0.6875 (   367 PWs)   bands (ev):

    -3.1482  -0.8334   2.2530   3.8405

          k = 0.4375 0.3125 0.5625 (   366 PWs)   bands (ev):

    -3.7405  -0.6717   3.7130   4.4104

          k =-0.0625-0.9375 0.0625 (   362 PWs)   bands (ev):

    -2.3567  -1.4351   2.8403   3.0649

          k =-0.1875-0.8125-0.0625 (   361 PWs)   bands (ev):

    -3.1113  -0.5153   2.5888   3.1049

          k =-0.3125-0.6875-0.1875 (   365 PWs)   bands (ev):

    -3.5737  -0.2411   2.6381   3.6880

          k =-0.0625-0.6875 0.0625 (   362 PWs)   bands (ev):

    -3.9340   0.5695   3.2434   3.4182

          k =-0.1875-0.5625-0.0625 (   358 PWs)   bands (ev):

    -4.4502   1.2722   3.2885   3.9211

          k =-0.0625-0.4375 0.0625 (   353 PWs)   bands (ev):

    -5.0770   2.6193   4.1748   4.2087

          k =-0.1875 0.1875 0.1875 (   359 PWs)   bands (ev):

    -5.4698   3.0335   5.2560   5.2560

          k =-0.3125 0.3125 0.0625 (   362 PWs)   bands (ev):

    -5.0876   2.1981   3.7818   5.2702

          k =-0.4375 0.4375-0.0625 (   362 PWs)   bands (ev):

    -4.3597   0.8518   2.7279   4.7780

          k = 0.4375-0.4375 0.8125 (   367 PWs)   bands (ev):

    -3.4921  -0.5940   2.5702   4.2608

          k = 0.3125-0.3125 0.6875 (   368 PWs)   bands (ev):

    -3.4769  -0.6219   2.8595   3.9515

          k = 0.1875-0.1875 0.5625 (   358 PWs)   bands (ev):

    -4.3424   0.8487   3.4597   3.9300

          k =-0.1875 0.4375 0.1875 (   362 PWs)   bands (ev):

    -4.8372   1.5489   4.2631   4.3387

          k =-0.3125 0.5625 0.0625 (   361 PWs)   bands (ev):

    -4.2264   0.7810   2.7833   4.1467

          k = 0.5625-0.3125 0.9375 (   367 PWs)   bands (ev):

    -3.3597  -0.3018   2.0163   3.5963

          k = 0.4375-0.1875 0.8125 (   369 PWs)   bands (ev):

    -2.8874  -0.8965   2.0153   3.2932

          k = 0.3125-0.0625 0.6875 (   365 PWs)   bands (ev):

    -3.6354   0.0783   2.4302   3.4668

          k =-0.1875 0.6875 0.1875 (   362 PWs)   bands (ev):

    -3.7415   0.1378   2.7529   3.6067

          k = 0.6875-0.1875 1.0625 (   363 PWs)   bands (ev):

    -2.9585  -0.6518   2.1957   2.9459

          k = 0.5625-0.0625 0.9375 (   370 PWs)   bands (ev):

    -2.1739  -1.3928   1.8896   2.4599

          k = 0.4375 0.0625 0.8125 (   371 PWs)   bands (ev):

    -2.7614  -0.8530   1.8787   2.9218

          k =-0.1875-1.0625 0.1875 (   364 PWs)   bands (ev):

    -2.3310  -1.3688   1.9905   3.2720

          k =-0.3125-0.9375 0.0625 (   368 PWs)   bands (ev):

    -2.2331  -1.4011   2.0817   2.6665

          k =-0.1875-0.8125 0.1875 (   364 PWs)   bands (ev):

    -3.0531  -0.6127   2.2472   3.3847

          k =-0.3125 0.3125 0.3125 (   359 PWs)   bands (ev):

    -4.7329   0.8760   4.8500   4.8500

          k =-0.4375 0.4375 0.1875 (   362 PWs)   bands (ev):

    -4.2661   0.3054   3.4160   4.7632

          k = 0.4375-0.4375 1.0625 (   367 PWs)   bands (ev):

    -3.4948  -0.2339   1.9378   4.1986

          k = 0.3125-0.3125 0.9375 (   366 PWs)   bands (ev):

    -2.6964  -1.0039   1.6131   3.6661

          k =-0.3125 0.5625 0.3125 (   368 PWs)   bands (ev):

    -3.9614  -0.2386   3.7381   4.2158

          k = 0.5625-0.3125 1.1875 (   368 PWs)   bands (ev):

    -3.3581  -0.6006   2.4673   3.7562

          k = 0.4375-0.1875 1.0625 (   372 PWs)   bands (ev):

    -2.5614  -1.0721   1.7030   3.0633

          k =-0.3125-1.1875 0.3125 (   365 PWs)   bands (ev):

    -3.0099  -0.8777   2.0901   3.7636

          k =-0.4375 0.4375 0.4375 (   356 PWs)   bands (ev):

    -3.8705  -0.7265   4.6326   4.6326

          k = 0.4375-0.4375 1.3125 (   365 PWs)   bands (ev):

    -3.5301  -0.9020   3.4302   4.3722

     highest occupied level (ev):     5.6873

!    total energy              =     -19.19095986 Ry
     Harris-Foulkes estimate   =     -19.19095986 Ry
     estimated scf accuracy    <          6.2E-09 Ry

     The total energy is the sum of the following terms:

     one-electron contribution =       4.79340210 Ry
     hartree contribution      =       1.15185512 Ry
     xc contribution           =      -8.57101067 Ry
     ewald contribution        =     -16.56520640 Ry

     convergence has been achieved in   6 iterations

     Writing output data file silicon.10.406.save

     init_run     :      0.25s CPU      0.29s WALL (       1 calls)
     electrons    :      1.25s CPU      1.78s WALL (       1 calls)

     Called by init_run:
     wfcinit      :      0.07s CPU      0.08s WALL (       1 calls)
     potinit      :      0.01s CPU      0.02s WALL (       1 calls)

     Called by electrons:
     c_bands      :      0.89s CPU      1.24s WALL (       7 calls)
     sum_band     :      0.22s CPU      0.34s WALL (       7 calls)
     v_of_rho     :      0.06s CPU      0.09s WALL (       7 calls)
     newd         :      0.07s CPU      0.10s WALL (       7 calls)
     mix_rho      :      0.00s CPU      0.01s WALL (       7 calls)

     Called by c_bands:
     init_us_2    :      0.06s CPU      0.06s WALL (     900 calls)
     cegterg      :      0.75s CPU      1.07s WALL (     420 calls)

     Called by sum_band:
     sum_band:bec :      0.00s CPU      0.01s WALL (     420 calls)
     addusdens    :      0.08s CPU      0.10s WALL (       7 calls)

     Called by *egterg:
     h_psi        :      0.54s CPU      0.75s WALL (    1300 calls)
     s_psi        :      0.06s CPU      0.07s WALL (    1300 calls)
     g_psi        :      0.00s CPU      0.00s WALL (     820 calls)
     cdiaghg      :      0.08s CPU      0.11s WALL (    1180 calls)

     Called by h_psi:
     h_psi:pot    :      0.54s CPU      0.75s WALL (    1300 calls)
     h_psi:calbec :      0.09s CPU      0.14s WALL (    1300 calls)
     vloc_psi     :      0.38s CPU      0.54s WALL (    1300 calls)
     add_vuspsi   :      0.06s CPU      0.06s WALL (    1300 calls)

     General routines
     calbec       :      0.12s CPU      0.20s WALL (    1720 calls)
     fft          :      0.05s CPU      0.10s WALL (     112 calls)
     ffts         :      0.00s CPU      0.00s WALL (      14 calls)
     fftw         :      0.38s CPU      0.57s WALL (   11618 calls)
     interpolate  :      0.01s CPU      0.01s WALL (      14 calls)
     davcio       :      0.00s CPU      0.00s WALL (      60 calls)

     Parallel routines
     fft_scatter  :      0.22s CPU      0.43s WALL (   11744 calls)

     PWSCF        :     1.77s CPU         2.34s WALL


   This run was terminated on:  10: 3:50  10Nov2017            

=------------------------------------------------------------------------------=
   JOB DONE.
=------------------------------------------------------------------------------=
