
     Program PWSCF v.6.1 (svn rev. 13369) starts on 10Nov2017 at 10:31:32 

     This program is part of the open-source Quantum ESPRESSO suite
     for quantum simulation of materials; please cite
         "P. Giannozzi et al., J. Phys.:Condens. Matter 21 395502 (2009);
          URL http://www.quantum-espresso.org", 
     in publications or presentations arising from this work. More details at
     http://www.quantum-espresso.org/quote

     Parallel version (MPI), running on     4 processors
     R & G space division:  proc/nbgrp/npool/nimage =       4
     Waiting for input...
     Reading input from standard input
     Message from routine read_cards :
     DEPRECATED: no units specified in ATOMIC_POSITIONS card
     Message from routine read_cards :
     ATOMIC_POSITIONS: units set to alat

     Current dimensions of program PWSCF are:
     Max number of different atomic species (ntypx) = 10
     Max number of k-points (npk) =  40000
     Max angular momentum in pseudopotentials (lmaxx) =  3

     Subspace diagonalization in iterative solution of the eigenvalue problem:
     a serial algorithm will be used


     Parallelization info
     --------------------
     sticks:   dense  smooth     PW     G-vecs:    dense   smooth      PW
     Min         219     109     37                 4315     1545     301
     Max         220     110     38                 4316     1546     304
     Sum         877     439    151                17261     6183    1211



     bravais-lattice index     =            2
     lattice parameter (alat)  =      10.3360  a.u.
     unit-cell volume          =     276.0562 (a.u.)^3
     number of atoms/cell      =            2
     number of atomic types    =            1
     number of electrons       =         8.00
     number of Kohn-Sham states=            4
     kinetic-energy cutoff     =      30.0000  Ry
     charge density cutoff     =     240.0000  Ry
     convergence threshold     =      1.0E-08
     mixing beta               =       0.7000
     number of iterations used =            8  plain     mixing
     Exchange-correlation      = SLA  PW   PBE  PBE ( 1  4  3  4 0 0)

     celldm(1)=  10.336000  celldm(2)=   0.000000  celldm(3)=   0.000000
     celldm(4)=   0.000000  celldm(5)=   0.000000  celldm(6)=   0.000000

     crystal axes: (cart. coord. in units of alat)
               a(1) = (  -0.500000   0.000000   0.500000 )  
               a(2) = (   0.000000   0.500000   0.500000 )  
               a(3) = (  -0.500000   0.500000   0.000000 )  

     reciprocal axes: (cart. coord. in units 2 pi/alat)
               b(1) = ( -1.000000 -1.000000  1.000000 )  
               b(2) = (  1.000000  1.000000  1.000000 )  
               b(3) = ( -1.000000  1.000000 -1.000000 )  


     PseudoPot. # 1 for Si read from file:
     /home/max/quantum_espresso/qe-6.1/pseudo/si_pbe_v1.uspp.F.UPF.txt
     MD5 check sum: a056efeee980c13900f22a371efd63c1
     Pseudo is Ultrasoft + core correction, Zval =  4.0
     Generated by new atomic code, or converted to UPF format
     Using radial grid of  899 points,  6 beta functions with: 
                l(1) =   0
                l(2) =   0
                l(3) =   1
                l(4) =   1
                l(5) =   2
                l(6) =   2
     Q(r) pseudized with  8 coefficients,  rinner =    0.900   0.900   0.900
                                                       0.900   0.900

     atomic species   valence    mass     pseudopotential
        Si             4.00    28.08600     Si( 1.00)

     48 Sym. Ops., with inversion, found (24 have fractional translation)



   Cartesian axes

     site n.     atom                  positions (alat units)
         1           Si  tau(   1) = (   0.0000000   0.0000000   0.0000000  )
         2           Si  tau(   2) = (   0.2500000   0.2500000   0.2500000  )

     number of k points=    28
                       cart. coord. in units 2pi/alat
        k(    1) = (  -0.0833333   0.0833333   0.0833333), wk =   0.0185185
        k(    2) = (  -0.2500000   0.2500000  -0.0833333), wk =   0.0555556
        k(    3) = (  -0.4166667   0.4166667  -0.2500000), wk =   0.0555556
        k(    4) = (   0.4166667  -0.4166667   0.5833333), wk =   0.0555556
        k(    5) = (   0.2500000  -0.2500000   0.4166667), wk =   0.0555556
        k(    6) = (   0.0833333  -0.0833333   0.2500000), wk =   0.0555556
        k(    7) = (  -0.0833333   0.4166667   0.0833333), wk =   0.0555556
        k(    8) = (  -0.2500000   0.5833333  -0.0833333), wk =   0.1111111
        k(    9) = (   0.5833333  -0.2500000   0.7500000), wk =   0.1111111
        k(   10) = (   0.4166667  -0.0833333   0.5833333), wk =   0.1111111
        k(   11) = (   0.2500000   0.0833333   0.4166667), wk =   0.1111111
        k(   12) = (  -0.0833333   0.7500000   0.0833333), wk =   0.0555556
        k(   13) = (   0.7500000  -0.0833333   0.9166667), wk =   0.1111111
        k(   14) = (   0.5833333   0.0833333   0.7500000), wk =   0.1111111
        k(   15) = (   0.4166667   0.2500000   0.5833333), wk =   0.1111111
        k(   16) = (  -0.0833333  -0.9166667   0.0833333), wk =   0.0555556
        k(   17) = (  -0.2500000  -0.7500000  -0.0833333), wk =   0.1111111
        k(   18) = (  -0.0833333  -0.5833333   0.0833333), wk =   0.0555556
        k(   19) = (  -0.2500000   0.2500000   0.2500000), wk =   0.0185185
        k(   20) = (  -0.4166667   0.4166667   0.0833333), wk =   0.0555556
        k(   21) = (   0.4166667  -0.4166667   0.9166667), wk =   0.0555556
        k(   22) = (   0.2500000  -0.2500000   0.7500000), wk =   0.0555556
        k(   23) = (  -0.2500000   0.5833333   0.2500000), wk =   0.0555556
        k(   24) = (   0.5833333  -0.2500000   1.0833333), wk =   0.1111111
        k(   25) = (   0.4166667  -0.0833333   0.9166667), wk =   0.1111111
        k(   26) = (  -0.2500000  -1.0833333   0.2500000), wk =   0.0555556
        k(   27) = (  -0.4166667   0.4166667   0.4166667), wk =   0.0185185
        k(   28) = (   0.4166667  -0.4166667   1.2500000), wk =   0.0555556

     Dense  grid:    17261 G-vectors     FFT dimensions: (  40,  40,  40)

     Smooth grid:     6183 G-vectors     FFT dimensions: (  25,  25,  25)

     Estimated max dynamical RAM per process >       3.35MB

     Estimated total allocated dynamical RAM >      13.41MB

     Initial potential from superposition of free atoms

     starting charge    7.99866, renormalised to    8.00000
     Starting wfc are    8 randomized atomic wfcs

     total cpu time spent up to now is        0.5 secs

     per-process dynamical memory:     9.8 Mb

     Self-consistent Calculation

     iteration #  1     ecut=    30.00 Ry     beta=0.70
     Davidson diagonalization with overlap
     ethr =  1.00E-02,  avg # of iterations =  2.0

     Threshold (ethr) on eigenvalues was too large:
     Diagonalizing with lowered threshold

     Davidson diagonalization with overlap
     ethr =  6.76E-04,  avg # of iterations =  1.0

     total cpu time spent up to now is        0.9 secs

     total energy              =     -19.19124172 Ry
     Harris-Foulkes estimate   =     -19.20366405 Ry
     estimated scf accuracy    <       0.05359874 Ry

     iteration #  2     ecut=    30.00 Ry     beta=0.70
     Davidson diagonalization with overlap
     ethr =  6.70E-04,  avg # of iterations =  1.0

     total cpu time spent up to now is        1.1 secs

     total energy              =     -19.19299706 Ry
     Harris-Foulkes estimate   =     -19.19316610 Ry
     estimated scf accuracy    <       0.00244680 Ry

     iteration #  3     ecut=    30.00 Ry     beta=0.70
     Davidson diagonalization with overlap
     ethr =  3.06E-05,  avg # of iterations =  2.2

     total cpu time spent up to now is        1.5 secs

     total energy              =     -19.19333009 Ry
     Harris-Foulkes estimate   =     -19.19334298 Ry
     estimated scf accuracy    <       0.00004208 Ry

     iteration #  4     ecut=    30.00 Ry     beta=0.70
     Davidson diagonalization with overlap
     ethr =  5.26E-07,  avg # of iterations =  3.3

     total cpu time spent up to now is        2.4 secs

     total energy              =     -19.19336859 Ry
     Harris-Foulkes estimate   =     -19.19336941 Ry
     estimated scf accuracy    <       0.00000303 Ry

     iteration #  5     ecut=    30.00 Ry     beta=0.70
     Davidson diagonalization with overlap
     ethr =  3.79E-08,  avg # of iterations =  2.0

     total cpu time spent up to now is        2.6 secs

     total energy              =     -19.19336899 Ry
     Harris-Foulkes estimate   =     -19.19336898 Ry
     estimated scf accuracy    <       0.00000001 Ry

     iteration #  6     ecut=    30.00 Ry     beta=0.70
     Davidson diagonalization with overlap
     ethr =  1.26E-10,  avg # of iterations =  4.0

     total cpu time spent up to now is        3.0 secs

     End of self-consistent calculation

          k =-0.0833 0.0833 0.0833 (   749 PWs)   bands (ev):

    -5.7524   5.1123   5.8305   5.8305

          k =-0.2500 0.2500-0.0833 (   772 PWs)   bands (ev):

    -5.2832   3.0467   4.6146   5.6212

          k =-0.4167 0.4167-0.2500 (   768 PWs)   bands (ev):

    -4.2098   0.3240   4.1518   4.9933

          k = 0.4167-0.4167 0.5833 (   767 PWs)   bands (ev):

    -3.5274  -0.7986   4.2145   4.6192

          k = 0.2500-0.2500 0.4167 (   774 PWs)   bands (ev):

    -4.6140   1.1576   4.6804   4.7064

          k = 0.0833-0.0833 0.2500 (   775 PWs)   bands (ev):

    -5.5154   4.0463   5.1962   5.3739

          k =-0.0833 0.4167 0.0833 (   775 PWs)   bands (ev):

    -5.0456   2.8493   4.4583   4.4775

          k =-0.2500 0.5833-0.0833 (   770 PWs)   bands (ev):

    -4.1501   1.0310   3.1637   4.0954

          k = 0.5833-0.2500 0.7500 (   763 PWs)   bands (ev):

    -3.0568  -0.6851   2.5662   3.8733

          k = 0.4167-0.0833 0.5833 (   768 PWs)   bands (ev):

    -3.7632   0.3508   2.5310   4.3502

          k = 0.2500 0.0833 0.4167 (   771 PWs)   bands (ev):

    -4.8240   2.0291   3.8493   5.0050

          k =-0.0833 0.7500 0.0833 (   769 PWs)   bands (ev):

    -3.4491   0.2060   3.1309   3.4631

          k = 0.7500-0.0833 0.9167 (   758 PWs)   bands (ev):

    -2.2740  -1.1157   2.3066   3.0657

          k = 0.5833 0.0833 0.7500 (   759 PWs)   bands (ev):

    -2.6431  -0.7774   1.8300   3.6019

          k = 0.4167 0.2500 0.5833 (   768 PWs)   bands (ev):

    -3.6549  -0.3113   3.4494   4.4455

          k =-0.0833-0.9167 0.0833 (   764 PWs)   bands (ev):

    -2.3623  -1.1227   2.8659   3.2506

          k =-0.2500-0.7500-0.0833 (   766 PWs)   bands (ev):

    -3.2843  -0.0127   2.6198   3.4009

          k =-0.0833-0.5833 0.0833 (   767 PWs)   bands (ev):

    -4.3518   1.5562   3.6656   3.8796

          k =-0.2500 0.2500 0.2500 (   769 PWs)   bands (ev):

    -5.0574   2.0839   5.2251   5.2251

          k =-0.4167 0.4167 0.0833 (   767 PWs)   bands (ev):

    -4.3895   1.1521   3.1277   5.0570

          k = 0.4167-0.4167 0.9167 (   769 PWs)   bands (ev):

    -3.2321  -0.2750   2.0412   4.2843

          k = 0.2500-0.2500 0.7500 (   763 PWs)   bands (ev):

    -3.1798  -0.3535   2.5093   3.8106

          k =-0.2500 0.5833 0.2500 (   773 PWs)   bands (ev):

    -3.9729   0.3583   3.5774   4.1781

          k = 0.5833-0.2500 1.0833 (   761 PWs)   bands (ev):

    -2.9884  -0.3928   2.1407   3.4004

          k = 0.4167-0.0833 0.9167 (   755 PWs)   bands (ev):

    -2.1718  -1.1234   1.9839   2.7458

          k =-0.2500-1.0833 0.2500 (   760 PWs)   bands (ev):

    -2.3796  -1.0261   1.8595   3.6189

          k =-0.4167 0.4167 0.4167 (   769 PWs)   bands (ev):

    -3.8881  -0.4050   4.8405   4.8405

          k = 0.4167-0.4167 1.2500 (   768 PWs)   bands (ev):

    -3.2951  -0.7077   3.0313   4.4087

     highest occupied level (ev):     5.8305

!    total energy              =     -19.19336902 Ry
     Harris-Foulkes estimate   =     -19.19336902 Ry
     estimated scf accuracy    <          6.8E-10 Ry

     The total energy is the sum of the following terms:

     one-electron contribution =       4.94530868 Ry
     hartree contribution      =       1.13455283 Ry
     xc contribution           =      -8.59583720 Ry
     ewald contribution        =     -16.67739333 Ry

     convergence has been achieved in   6 iterations

     Writing output data file silicon.10.336.save

     init_run     :      0.33s CPU      0.39s WALL (       1 calls)
     electrons    :      1.66s CPU      2.49s WALL (       1 calls)

     Called by init_run:
     wfcinit      :      0.08s CPU      0.09s WALL (       1 calls)
     potinit      :      0.02s CPU      0.03s WALL (       1 calls)

     Called by electrons:
     c_bands      :      0.99s CPU      1.63s WALL (       7 calls)
     sum_band     :      0.37s CPU      0.47s WALL (       7 calls)
     v_of_rho     :      0.13s CPU      0.17s WALL (       7 calls)
     newd         :      0.17s CPU      0.22s WALL (       7 calls)
     mix_rho      :      0.01s CPU      0.01s WALL (       7 calls)

     Called by c_bands:
     init_us_2    :      0.06s CPU      0.07s WALL (     420 calls)
     cegterg      :      0.87s CPU      1.47s WALL (     196 calls)

     Called by sum_band:
     sum_band:bec :      0.00s CPU      0.00s WALL (     196 calls)
     addusdens    :      0.16s CPU      0.20s WALL (       7 calls)

     Called by *egterg:
     h_psi        :      0.71s CPU      1.18s WALL (     659 calls)
     s_psi        :      0.05s CPU      0.06s WALL (     659 calls)
     g_psi        :      0.00s CPU      0.00s WALL (     435 calls)
     cdiaghg      :      0.06s CPU      0.09s WALL (     603 calls)

     Called by h_psi:
     h_psi:pot    :      0.71s CPU      1.18s WALL (     659 calls)
     h_psi:calbec :      0.07s CPU      0.12s WALL (     659 calls)
     vloc_psi     :      0.58s CPU      1.00s WALL (     659 calls)
     add_vuspsi   :      0.05s CPU      0.06s WALL (     659 calls)

     General routines
     calbec       :      0.10s CPU      0.16s WALL (     855 calls)
     fft          :      0.10s CPU      0.13s WALL (     112 calls)
     ffts         :      0.00s CPU      0.01s WALL (      14 calls)
     fftw         :      0.58s CPU      1.00s WALL (    5710 calls)
     interpolate  :      0.01s CPU      0.02s WALL (      14 calls)
     davcio       :      0.00s CPU      0.00s WALL (      28 calls)

     Parallel routines
     fft_scatter  :      0.32s CPU      0.72s WALL (    5836 calls)

     PWSCF        :     2.20s CPU         3.12s WALL


   This run was terminated on:  10:31:35  10Nov2017            

=------------------------------------------------------------------------------=
   JOB DONE.
=------------------------------------------------------------------------------=
