
     Program PHONON v.6.1 (svn rev. 13369) starts on 10Nov2017 at 15:40:36 

     This program is part of the open-source Quantum ESPRESSO suite
     for quantum simulation of materials; please cite
         "P. Giannozzi et al., J. Phys.:Condens. Matter 21 395502 (2009);
          URL http://www.quantum-espresso.org", 
     in publications or presentations arising from this work. More details at
     http://www.quantum-espresso.org/quote

     Parallel version (MPI), running on     4 processors
     R & G space division:  proc/nbgrp/npool/nimage =       4

     Reading data from directory:
     ./silicon.10.334.save

   Info: using nr1, nr2, nr3 values from input

   Info: using nr1, nr2, nr3 values from input

     IMPORTANT: XC functional enforced from input :
     Exchange-correlation      = SLA  PW   PBE  PBE ( 1  4  3  4 0 0)
     Any further DFT definition will be discarded
     Please, verify this is what you really want


     Parallelization info
     --------------------
     sticks:   dense  smooth     PW     G-vecs:    dense   smooth      PW
     Min         219     109     37                 4315     1545     284
     Max         220     110     38                 4316     1546     285
     Sum         877     439    151                17261     6183    1139



     Dynamical matrices for ( 4, 4, 4)  uniform grid of q-points
     (   8q-points):
       N         xq(1)         xq(2)         xq(3) 
       1   0.000000000   0.000000000   0.000000000
       2  -0.250000000   0.250000000  -0.250000000
       3   0.500000000  -0.500000000   0.500000000
       4   0.000000000   0.500000000   0.000000000
       5   0.750000000  -0.250000000   0.750000000
       6   0.500000000   0.000000000   0.500000000
       7   0.000000000  -1.000000000   0.000000000
       8  -0.500000000  -1.000000000   0.000000000

     Calculation of q =    0.0000000   0.0000000   0.0000000

                                                                                

     bravais-lattice index     =            2
     lattice parameter (alat)  =      10.3340  a.u.
     unit-cell volume          =     275.8960 (a.u.)^3
     number of atoms/cell      =            2
     number of atomic types    =            1
     kinetic-energy cut-off    =      30.0000  Ry
     charge density cut-off    =     240.0000  Ry
     convergence threshold     =      1.0E-12
     beta                      =       0.7000
     number of iterations used =            4
     Exchange-correlation      = SLA  PW   PBE  PBE ( 1  4  3  4 0 0)


     celldm(1)=   10.33400  celldm(2)=    0.00000  celldm(3)=    0.00000
     celldm(4)=    0.00000  celldm(5)=    0.00000  celldm(6)=    0.00000

     crystal axes: (cart. coord. in units of alat)
               a(1) = ( -0.5000  0.0000  0.5000 )  
               a(2) = (  0.0000  0.5000  0.5000 )  
               a(3) = ( -0.5000  0.5000  0.0000 )  

     reciprocal axes: (cart. coord. in units 2 pi/alat)
               b(1) = ( -1.0000 -1.0000  1.0000 )  
               b(2) = (  1.0000  1.0000  1.0000 )  
               b(3) = ( -1.0000  1.0000 -1.0000 )  


     Atoms inside the unit cell: 

     Cartesian axes

     site n.  atom      mass           positions (alat units)
        1     Si  28.0860   tau(    1) = (    0.00000    0.00000    0.00000  )
        2     Si  28.0860   tau(    2) = (    0.25000    0.25000    0.25000  )

     Computing dynamical matrix for 
                    q = (   0.0000000   0.0000000   0.0000000 )

     49 Sym.Ops. (with q -> -q+G )


     G cutoff =  649.2148  (   4315 G-vectors)     FFT grid: ( 40, 40, 40)
     G cutoff =  324.6074  (   1546 G-vectors)  smooth grid: ( 25, 25, 25)
     number of k points=    10

     PseudoPot. # 1 for Si read from file:
     /home/s1333534/quantum_espresso/qe-6.1/pseudo/si_pbe_v1.uspp.F.UPF.txt
     MD5 check sum: a056efeee980c13900f22a371efd63c1
     Pseudo is Ultrasoft + core correction, Zval =  4.0
     Generated by new atomic code, or converted to UPF format
     Using radial grid of  899 points,  6 beta functions with: 
                l(1) =   0
                l(2) =   0
                l(3) =   1
                l(4) =   1
                l(5) =   2
                l(6) =   2
     Q(r) pseudized with  8 coefficients,  rinner =    0.900   0.900   0.900
                                                       0.900   0.900

     Mode symmetry, O_h (m-3m)  point group:


     Electric field:
     Dielectric constant
     Born effective charges in two ways 


     Atomic displacements:
     There are   2 irreducible representations

     Representation     1      3 modes -T_2g G_25' G_5+  To be done

     Representation     2      3 modes -T_1u G_15  G_4-  To be done



     Alpha used in Ewald sum =   2.5000
     PHONON       :     0.96s CPU         1.33s WALL


     Electric Fields Calculation

      iter #   1 total cpu time :     2.4 secs   av.it.:   5.7
      thresh= 1.000E-02 alpha_mix =  0.700 |ddv_scf|^2 =  9.698E-08

      iter #   2 total cpu time :     3.2 secs   av.it.:  11.9
      thresh= 3.114E-05 alpha_mix =  0.700 |ddv_scf|^2 =  5.715E-09

      iter #   3 total cpu time :     4.0 secs   av.it.:  11.7
      thresh= 7.559E-06 alpha_mix =  0.700 |ddv_scf|^2 =  3.816E-10

      iter #   4 total cpu time :     4.9 secs   av.it.:  10.6
      thresh= 1.953E-06 alpha_mix =  0.700 |ddv_scf|^2 =  2.510E-12

      iter #   5 total cpu time :     5.5 secs   av.it.:  11.2
      thresh= 1.584E-07 alpha_mix =  0.700 |ddv_scf|^2 =  2.499E-15

     End of electric fields calculation

          Dielectric constant in cartesian axis 

          (      13.967039646       0.000000000      -0.000000000 )
          (       0.000000000      13.967039646       0.000000000 )
          (      -0.000000000       0.000000000      13.967039646 )

          Effective charges (d Force / dE) in cartesian axis

           atom      1   Si 
      Ex  (       -0.03851        0.00000        0.00000 )
      Ey  (       -0.00000       -0.03851       -0.00000 )
      Ez  (        0.00000       -0.00000       -0.03851 )
           atom      2   Si 
      Ex  (       -0.03851        0.00000        0.00000 )
      Ey  (        0.00000       -0.03851       -0.00000 )
      Ez  (        0.00000        0.00000       -0.03851 )


     Representation #  1 modes #   1  2  3

     Self-consistent Calculation

      iter #   1 total cpu time :     6.9 secs   av.it.:   5.1
      thresh= 1.000E-02 alpha_mix =  0.700 |ddv_scf|^2 =  1.714E-08

      iter #   2 total cpu time :     7.8 secs   av.it.:  11.8
      thresh= 1.309E-05 alpha_mix =  0.700 |ddv_scf|^2 =  7.014E-10

      iter #   3 total cpu time :     8.6 secs   av.it.:  11.3
      thresh= 2.648E-06 alpha_mix =  0.700 |ddv_scf|^2 =  4.771E-11

      iter #   4 total cpu time :     9.2 secs   av.it.:  10.4
      thresh= 6.907E-07 alpha_mix =  0.700 |ddv_scf|^2 =  1.178E-13

     End of self-consistent calculation

     Convergence has been achieved 


     Representation #  2 modes #   4  5  6

     Self-consistent Calculation

      iter #   1 total cpu time :    10.2 secs   av.it.:   5.2
      thresh= 1.000E-02 alpha_mix =  0.700 |ddv_scf|^2 =  1.352E-08

      iter #   2 total cpu time :    11.2 secs   av.it.:  11.7
      thresh= 1.163E-05 alpha_mix =  0.700 |ddv_scf|^2 =  7.958E-10

      iter #   3 total cpu time :    12.2 secs   av.it.:  11.4
      thresh= 2.821E-06 alpha_mix =  0.700 |ddv_scf|^2 =  4.935E-11

      iter #   4 total cpu time :    12.9 secs   av.it.:  11.5
      thresh= 7.025E-07 alpha_mix =  0.700 |ddv_scf|^2 =  1.908E-13

     End of self-consistent calculation

     Convergence has been achieved 

     Number of q in the star =    1
     List of q in the star:
          1   0.000000000   0.000000000   0.000000000

          Dielectric constant in cartesian axis 

          (      13.967039646       0.000000000      -0.000000000 )
          (       0.000000000      13.967039646       0.000000000 )
          (      -0.000000000       0.000000000      13.967039646 )

          Effective charges (d Force / dE) in cartesian axis

           atom      1   Si 
      Ex  (       -0.03851        0.00000        0.00000 )
      Ey  (       -0.00000       -0.03851       -0.00000 )
      Ez  (        0.00000       -0.00000       -0.03851 )
           atom      2   Si 
      Ex  (       -0.03851        0.00000        0.00000 )
      Ey  (        0.00000       -0.03851       -0.00000 )
      Ez  (        0.00000        0.00000       -0.03851 )

          Effective charges (d P / du) in cartesian axis 

           atom      1   Si 
      Px  (       -0.07250        0.00000        0.00000 )
      Py  (        0.00000       -0.07250       -0.00000 )
      Pz  (       -0.00000       -0.00000       -0.07250 )
           atom      2   Si 
      Px  (       -0.07250        0.00000        0.00000 )
      Py  (        0.00000       -0.07250        0.00000 )
      Pz  (        0.00000       -0.00000       -0.07250 )

     Diagonalizing the dynamical matrix

     q = (    0.000000000   0.000000000   0.000000000 ) 

 **************************************************************************
     freq (    1) =      -0.473790 [THz] =     -15.803934 [cm-1]
     freq (    2) =      -0.473790 [THz] =     -15.803934 [cm-1]
     freq (    3) =      -0.473790 [THz] =     -15.803934 [cm-1]
     freq (    4) =      15.065762 [THz] =     502.539715 [cm-1]
     freq (    5) =      15.065762 [THz] =     502.539715 [cm-1]
     freq (    6) =      15.065762 [THz] =     502.539715 [cm-1]
 **************************************************************************

     Mode symmetry, O_h (m-3m)  point group:

     freq (  1 -  3) =        -15.8  [cm-1]   --> T_1u G_15  G_4- I  
     freq (  4 -  6) =        502.5  [cm-1]   --> T_2g G_25' G_5+ R  

     Calculation of q =   -0.2500000   0.2500000  -0.2500000

   Info: using nr1, nr2, nr3 values from input

   Info: using nr1, nr2, nr3 values from input

     Parallelization info
     --------------------
     sticks:   dense  smooth     PW     G-vecs:    dense   smooth      PW
     Min         218     109     37                 4315     1545     309
     Max         220     110     38                 4316     1546     312
     Sum         877     439    151                17261     6183    1243



     bravais-lattice index     =            2
     lattice parameter (alat)  =      10.3340  a.u.
     unit-cell volume          =     275.8960 (a.u.)^3
     number of atoms/cell      =            2
     number of atomic types    =            1
     number of electrons       =         8.00
     number of Kohn-Sham states=            4
     kinetic-energy cutoff     =      30.0000  Ry
     charge density cutoff     =     240.0000  Ry
     Exchange-correlation      = SLA  PW   PBE  PBE ( 1  4  3  4 0 0)

     celldm(1)=  10.334000  celldm(2)=   0.000000  celldm(3)=   0.000000
     celldm(4)=   0.000000  celldm(5)=   0.000000  celldm(6)=   0.000000

     crystal axes: (cart. coord. in units of alat)
               a(1) = (  -0.500000   0.000000   0.500000 )  
               a(2) = (   0.000000   0.500000   0.500000 )  
               a(3) = (  -0.500000   0.500000   0.000000 )  

     reciprocal axes: (cart. coord. in units 2 pi/alat)
               b(1) = ( -1.000000 -1.000000  1.000000 )  
               b(2) = (  1.000000  1.000000  1.000000 )  
               b(3) = ( -1.000000  1.000000 -1.000000 )  


     PseudoPot. # 1 for Si read from file:
     /home/s1333534/quantum_espresso/qe-6.1/pseudo/si_pbe_v1.uspp.F.UPF.txt
     MD5 check sum: a056efeee980c13900f22a371efd63c1
     Pseudo is Ultrasoft + core correction, Zval =  4.0
     Generated by new atomic code, or converted to UPF format
     Using radial grid of  899 points,  6 beta functions with: 
                l(1) =   0
                l(2) =   0
                l(3) =   1
                l(4) =   1
                l(5) =   2
                l(6) =   2
     Q(r) pseudized with  8 coefficients,  rinner =    0.900   0.900   0.900
                                                       0.900   0.900

     atomic species   valence    mass     pseudopotential
        Si             4.00    28.08600     Si( 1.00)

     48 Sym. Ops., with inversion, found



   Cartesian axes

     site n.     atom                  positions (alat units)
         1           Si  tau(   1) = (   0.0000000   0.0000000   0.0000000  )
         2           Si  tau(   2) = (   0.2500000   0.2500000   0.2500000  )

     number of k points=   120

     Number of k-points >= 100: set verbosity='high' to print them.

     Dense  grid:    17261 G-vectors     FFT dimensions: (  40,  40,  40)

     Smooth grid:     6183 G-vectors     FFT dimensions: (  25,  25,  25)

     Estimated max dynamical RAM per process >       1.78MB

     Estimated total allocated dynamical RAM >       7.14MB

     The potential is recalculated from file :
     ./_ph0/silicon.10.334.save/charge-density.dat

     Starting wfc are    8 atomic wfcs

     Band Structure Calculation
     Davidson diagonalization with overlap

     ethr =  1.25E-10,  avg # of iterations = 12.2

     total cpu time spent up to now is        1.4 secs

     End of band structure calculation

     Number of k-points >= 100: set verbosity='high' to print the bands.

     highest occupied level (ev):     5.6950

     Writing output data file silicon.10.334.save

                                                                                

     bravais-lattice index     =            2
     lattice parameter (alat)  =      10.3340  a.u.
     unit-cell volume          =     275.8960 (a.u.)^3
     number of atoms/cell      =            2
     number of atomic types    =            1
     kinetic-energy cut-off    =      30.0000  Ry
     charge density cut-off    =     240.0000  Ry
     convergence threshold     =      1.0E-12
     beta                      =       0.7000
     number of iterations used =            4
     Exchange-correlation      = SLA  PW   PBE  PBE ( 1  4  3  4 0 0)


     celldm(1)=   10.33400  celldm(2)=    0.00000  celldm(3)=    0.00000
     celldm(4)=    0.00000  celldm(5)=    0.00000  celldm(6)=    0.00000

     crystal axes: (cart. coord. in units of alat)
               a(1) = ( -0.5000  0.0000  0.5000 )  
               a(2) = (  0.0000  0.5000  0.5000 )  
               a(3) = ( -0.5000  0.5000  0.0000 )  

     reciprocal axes: (cart. coord. in units 2 pi/alat)
               b(1) = ( -1.0000 -1.0000  1.0000 )  
               b(2) = (  1.0000  1.0000  1.0000 )  
               b(3) = ( -1.0000  1.0000 -1.0000 )  


     Atoms inside the unit cell: 

     Cartesian axes

     site n.  atom      mass           positions (alat units)
        1     Si  28.0860   tau(    1) = (    0.00000    0.00000    0.00000  )
        2     Si  28.0860   tau(    2) = (    0.25000    0.25000    0.25000  )

     Computing dynamical matrix for 
                    q = (  -0.2500000   0.2500000  -0.2500000 )

      6 Sym.Ops. (no q -> -q+G )


     G cutoff =  649.2148  (   4315 G-vectors)     FFT grid: ( 40, 40, 40)
     G cutoff =  324.6074  (   1546 G-vectors)  smooth grid: ( 25, 25, 25)
     number of k points=   120

     PseudoPot. # 1 for Si read from file:
     /home/s1333534/quantum_espresso/qe-6.1/pseudo/si_pbe_v1.uspp.F.UPF.txt
     MD5 check sum: a056efeee980c13900f22a371efd63c1
     Pseudo is Ultrasoft + core correction, Zval =  4.0
     Generated by new atomic code, or converted to UPF format
     Using radial grid of  899 points,  6 beta functions with: 
                l(1) =   0
                l(2) =   0
                l(3) =   1
                l(4) =   1
                l(5) =   2
                l(6) =   2
     Q(r) pseudized with  8 coefficients,  rinner =    0.900   0.900   0.900
                                                       0.900   0.900

     Mode symmetry, C_3v (3m)   point group:


     Atomic displacements:
     There are   4 irreducible representations

     Representation     1      1 modes -A_1  L_1  To be done

     Representation     2      1 modes -A_1  L_1  To be done

     Representation     3      2 modes -E    L_3  To be done

     Representation     4      2 modes -E    L_3  To be done



     Alpha used in Ewald sum =   2.5000
     PHONON       :    11.94s CPU        17.09s WALL



     Representation #  1 mode #   1

     Self-consistent Calculation

      iter #   1 total cpu time :    17.6 secs   av.it.:   5.9
      thresh= 1.000E-02 alpha_mix =  0.700 |ddv_scf|^2 =  3.106E-04

      iter #   2 total cpu time :    18.2 secs   av.it.:   9.2
      thresh= 1.763E-03 alpha_mix =  0.700 |ddv_scf|^2 =  4.735E-03

      iter #   3 total cpu time :    18.8 secs   av.it.:   7.1
      thresh= 6.881E-03 alpha_mix =  0.700 |ddv_scf|^2 =  1.955E-07

      iter #   4 total cpu time :    19.5 secs   av.it.:   9.8
      thresh= 4.422E-05 alpha_mix =  0.700 |ddv_scf|^2 =  1.287E-08

      iter #   5 total cpu time :    20.1 secs   av.it.:   9.7
      thresh= 1.135E-05 alpha_mix =  0.700 |ddv_scf|^2 =  2.400E-10

      iter #   6 total cpu time :    20.8 secs   av.it.:   9.8
      thresh= 1.549E-06 alpha_mix =  0.700 |ddv_scf|^2 =  5.553E-10

      iter #   7 total cpu time :    21.4 secs   av.it.:   7.8
      thresh= 2.357E-06 alpha_mix =  0.700 |ddv_scf|^2 =  3.867E-11

      iter #   8 total cpu time :    22.0 secs   av.it.:   9.4
      thresh= 6.219E-07 alpha_mix =  0.700 |ddv_scf|^2 =  4.199E-13

     End of self-consistent calculation

     Convergence has been achieved 


     Representation #  2 mode #   2

     Self-consistent Calculation

      iter #   1 total cpu time :    22.6 secs   av.it.:   5.9
      thresh= 1.000E-02 alpha_mix =  0.700 |ddv_scf|^2 =  3.106E-04

      iter #   2 total cpu time :    23.2 secs   av.it.:   9.2
      thresh= 1.763E-03 alpha_mix =  0.700 |ddv_scf|^2 =  4.735E-03

      iter #   3 total cpu time :    23.7 secs   av.it.:   7.1
      thresh= 6.881E-03 alpha_mix =  0.700 |ddv_scf|^2 =  1.955E-07

      iter #   4 total cpu time :    24.4 secs   av.it.:   9.8
      thresh= 4.422E-05 alpha_mix =  0.700 |ddv_scf|^2 =  1.287E-08

      iter #   5 total cpu time :    25.0 secs   av.it.:   9.7
      thresh= 1.135E-05 alpha_mix =  0.700 |ddv_scf|^2 =  2.400E-10

      iter #   6 total cpu time :    25.7 secs   av.it.:   9.8
      thresh= 1.549E-06 alpha_mix =  0.700 |ddv_scf|^2 =  5.553E-10

      iter #   7 total cpu time :    26.4 secs   av.it.:   7.8
      thresh= 2.357E-06 alpha_mix =  0.700 |ddv_scf|^2 =  3.867E-11

      iter #   8 total cpu time :    26.9 secs   av.it.:   9.4
      thresh= 6.219E-07 alpha_mix =  0.700 |ddv_scf|^2 =  4.199E-13

     End of self-consistent calculation

     Convergence has been achieved 


     Representation #  3 modes #   3  4

     Self-consistent Calculation

      iter #   1 total cpu time :    28.0 secs   av.it.:   5.2
      thresh= 1.000E-02 alpha_mix =  0.700 |ddv_scf|^2 =  4.821E-08

      iter #   2 total cpu time :    29.3 secs   av.it.:  11.6
      thresh= 2.196E-05 alpha_mix =  0.700 |ddv_scf|^2 =  3.098E-09

      iter #   3 total cpu time :    30.8 secs   av.it.:  11.2
      thresh= 5.566E-06 alpha_mix =  0.700 |ddv_scf|^2 =  1.638E-10

      iter #   4 total cpu time :    32.0 secs   av.it.:  11.1
      thresh= 1.280E-06 alpha_mix =  0.700 |ddv_scf|^2 =  6.261E-13

     End of self-consistent calculation

     Convergence has been achieved 


     Representation #  4 modes #   5  6

     Self-consistent Calculation

      iter #   1 total cpu time :    33.3 secs   av.it.:   5.2
      thresh= 1.000E-02 alpha_mix =  0.700 |ddv_scf|^2 =  4.822E-08

      iter #   2 total cpu time :    34.6 secs   av.it.:  11.7
      thresh= 2.196E-05 alpha_mix =  0.700 |ddv_scf|^2 =  3.097E-09

      iter #   3 total cpu time :    36.0 secs   av.it.:  11.4
      thresh= 5.565E-06 alpha_mix =  0.700 |ddv_scf|^2 =  1.637E-10

      iter #   4 total cpu time :    37.3 secs   av.it.:  11.2
      thresh= 1.280E-06 alpha_mix =  0.700 |ddv_scf|^2 =  6.289E-13

     End of self-consistent calculation

     Convergence has been achieved 

     Number of q in the star =    8
     List of q in the star:
          1  -0.250000000   0.250000000  -0.250000000
          2   0.250000000  -0.250000000  -0.250000000
          3   0.250000000  -0.250000000   0.250000000
          4   0.250000000   0.250000000   0.250000000
          5  -0.250000000  -0.250000000  -0.250000000
          6  -0.250000000  -0.250000000   0.250000000
          7  -0.250000000   0.250000000   0.250000000
          8   0.250000000   0.250000000  -0.250000000

     Diagonalizing the dynamical matrix

     q = (   -0.250000000   0.250000000  -0.250000000 ) 

 **************************************************************************
     freq (    1) =       2.785973 [THz] =      92.930051 [cm-1]
     freq (    2) =       2.785973 [THz] =      92.930051 [cm-1]
     freq (    3) =       6.728877 [THz] =     224.451168 [cm-1]
     freq (    4) =      14.217513 [THz] =     474.245190 [cm-1]
     freq (    5) =      14.489891 [THz] =     483.330724 [cm-1]
     freq (    6) =      14.489891 [THz] =     483.330724 [cm-1]
 **************************************************************************

     Mode symmetry, C_3v (3m)   point group:

     freq (  1 -  2) =         92.9  [cm-1]   --> E    L_3           
     freq (  3 -  3) =        224.5  [cm-1]   --> A_1  L_1           
     freq (  4 -  4) =        474.2  [cm-1]   --> A_1  L_1           
     freq (  5 -  6) =        483.3  [cm-1]   --> E    L_3           

     Calculation of q =    0.5000000  -0.5000000   0.5000000

   Info: using nr1, nr2, nr3 values from input

   Info: using nr1, nr2, nr3 values from input

     Parallelization info
     --------------------
     sticks:   dense  smooth     PW     G-vecs:    dense   smooth      PW
     Min         219     109     40                 4315     1545     351
     Max         220     110     41                 4316     1546     354
     Sum         877     439    163                17261     6183    1411



     bravais-lattice index     =            2
     lattice parameter (alat)  =      10.3340  a.u.
     unit-cell volume          =     275.8960 (a.u.)^3
     number of atoms/cell      =            2
     number of atomic types    =            1
     number of electrons       =         8.00
     number of Kohn-Sham states=            4
     kinetic-energy cutoff     =      30.0000  Ry
     charge density cutoff     =     240.0000  Ry
     Exchange-correlation      = SLA  PW   PBE  PBE ( 1  4  3  4 0 0)

     celldm(1)=  10.334000  celldm(2)=   0.000000  celldm(3)=   0.000000
     celldm(4)=   0.000000  celldm(5)=   0.000000  celldm(6)=   0.000000

     crystal axes: (cart. coord. in units of alat)
               a(1) = (  -0.500000   0.000000   0.500000 )  
               a(2) = (   0.000000   0.500000   0.500000 )  
               a(3) = (  -0.500000   0.500000   0.000000 )  

     reciprocal axes: (cart. coord. in units 2 pi/alat)
               b(1) = ( -1.000000 -1.000000  1.000000 )  
               b(2) = (  1.000000  1.000000  1.000000 )  
               b(3) = ( -1.000000  1.000000 -1.000000 )  


     PseudoPot. # 1 for Si read from file:
     /home/s1333534/quantum_espresso/qe-6.1/pseudo/si_pbe_v1.uspp.F.UPF.txt
     MD5 check sum: a056efeee980c13900f22a371efd63c1
     Pseudo is Ultrasoft + core correction, Zval =  4.0
     Generated by new atomic code, or converted to UPF format
     Using radial grid of  899 points,  6 beta functions with: 
                l(1) =   0
                l(2) =   0
                l(3) =   1
                l(4) =   1
                l(5) =   2
                l(6) =   2
     Q(r) pseudized with  8 coefficients,  rinner =    0.900   0.900   0.900
                                                       0.900   0.900

     atomic species   valence    mass     pseudopotential
        Si             4.00    28.08600     Si( 1.00)

     48 Sym. Ops., with inversion, found



   Cartesian axes

     site n.     atom                  positions (alat units)
         1           Si  tau(   1) = (   0.0000000   0.0000000   0.0000000  )
         2           Si  tau(   2) = (   0.2500000   0.2500000   0.2500000  )

     number of k points=    60
                       cart. coord. in units 2pi/alat
        k(    1) = (  -0.1250000   0.1250000   0.1250000), wk =   0.0468750
        k(    2) = (   0.3750000  -0.3750000   0.6250000), wk =   0.0000000
        k(    3) = (  -0.3750000   0.3750000  -0.1250000), wk =   0.0468750
        k(    4) = (   0.1250000  -0.1250000   0.3750000), wk =   0.0000000
        k(    5) = (   0.3750000  -0.3750000   0.6250000), wk =   0.0468750
        k(    6) = (   0.8750000  -0.8750000   1.1250000), wk =   0.0000000
        k(    7) = (   0.1250000  -0.1250000   0.3750000), wk =   0.0468750
        k(    8) = (   0.6250000  -0.6250000   0.8750000), wk =   0.0000000
        k(    9) = (  -0.1250000   0.6250000   0.1250000), wk =   0.0937500
        k(   10) = (   0.3750000   0.1250000   0.6250000), wk =   0.0000000
        k(   11) = (   0.6250000  -0.1250000   0.8750000), wk =   0.0937500
        k(   12) = (   1.1250000  -0.6250000   1.3750000), wk =   0.0000000
        k(   13) = (   0.3750000   0.1250000   0.6250000), wk =   0.0937500
        k(   14) = (   0.8750000  -0.3750000   1.1250000), wk =   0.0000000
        k(   15) = (  -0.1250000  -0.8750000   0.1250000), wk =   0.0937500
        k(   16) = (   0.3750000  -1.3750000   0.6250000), wk =   0.0000000
        k(   17) = (  -0.3750000   0.3750000   0.3750000), wk =   0.0468750
        k(   18) = (   0.1250000  -0.1250000   0.8750000), wk =   0.0000000
        k(   19) = (   0.3750000  -0.3750000   1.1250000), wk =   0.0468750
        k(   20) = (   0.8750000  -0.8750000   1.6250000), wk =   0.0000000
        k(   21) = (   0.1250000  -0.1250000   0.1250000), wk =   0.0156250
        k(   22) = (   0.6250000  -0.6250000   0.6250000), wk =   0.0000000
        k(   23) = (  -0.3750000  -0.3750000  -0.1250000), wk =   0.0937500
        k(   24) = (   0.1250000  -0.8750000   0.3750000), wk =   0.0000000
        k(   25) = (  -0.1250000  -0.3750000   0.3750000), wk =   0.0468750
        k(   26) = (   0.3750000  -0.8750000   0.8750000), wk =   0.0000000
        k(   27) = (   0.3750000   0.3750000   0.6250000), wk =   0.0937500
        k(   28) = (   0.8750000  -0.1250000   1.1250000), wk =   0.0000000
        k(   29) = (   0.6250000   0.3750000  -0.3750000), wk =   0.0468750
        k(   30) = (   1.1250000  -0.1250000   0.1250000), wk =   0.0000000
        k(   31) = (   0.1250000   0.1250000   0.3750000), wk =   0.0937500
        k(   32) = (   0.6250000  -0.3750000   0.8750000), wk =   0.0000000
        k(   33) = (   0.3750000   0.1250000  -0.1250000), wk =   0.0468750
        k(   34) = (   0.8750000  -0.3750000   0.3750000), wk =   0.0000000
        k(   35) = (  -0.1250000  -0.6250000  -0.1250000), wk =   0.0468750
        k(   36) = (   0.3750000  -1.1250000   0.3750000), wk =   0.0000000
        k(   37) = (   0.1250000  -0.6250000   0.1250000), wk =   0.0468750
        k(   38) = (   0.6250000  -1.1250000   0.6250000), wk =   0.0000000
        k(   39) = (   0.6250000   0.1250000   0.8750000), wk =   0.0937500
        k(   40) = (   1.1250000  -0.3750000   1.3750000), wk =   0.0000000
        k(   41) = (  -0.8750000   0.1250000   0.6250000), wk =   0.0937500
        k(   42) = (  -0.3750000  -0.3750000   1.1250000), wk =   0.0000000
        k(   43) = (   0.8750000   0.1250000  -0.6250000), wk =   0.0937500
        k(   44) = (   1.3750000  -0.3750000  -0.1250000), wk =   0.0000000
        k(   45) = (   0.3750000  -0.1250000   0.6250000), wk =   0.0937500
        k(   46) = (   0.8750000  -0.6250000   1.1250000), wk =   0.0000000
        k(   47) = (  -0.6250000  -0.1250000   0.3750000), wk =   0.0937500
        k(   48) = (  -0.1250000  -0.6250000   0.8750000), wk =   0.0000000
        k(   49) = (   0.6250000  -0.1250000  -0.3750000), wk =   0.0937500
        k(   50) = (   1.1250000  -0.6250000   0.1250000), wk =   0.0000000
        k(   51) = (  -0.1250000   0.8750000  -0.1250000), wk =   0.0468750
        k(   52) = (   0.3750000   0.3750000   0.3750000), wk =   0.0000000
        k(   53) = (   0.1250000   0.8750000   0.1250000), wk =   0.0468750
        k(   54) = (   0.6250000   0.3750000   0.6250000), wk =   0.0000000
        k(   55) = (   0.3750000  -0.3750000   0.3750000), wk =   0.0156250
        k(   56) = (   0.8750000  -0.8750000   0.8750000), wk =   0.0000000
        k(   57) = (   0.3750000   0.3750000   1.1250000), wk =   0.0937500
        k(   58) = (   0.8750000  -0.1250000   1.6250000), wk =   0.0000000
        k(   59) = (   1.1250000   0.3750000  -0.3750000), wk =   0.0468750
        k(   60) = (   1.6250000  -0.1250000   0.1250000), wk =   0.0000000

     Dense  grid:    17261 G-vectors     FFT dimensions: (  40,  40,  40)

     Smooth grid:     6183 G-vectors     FFT dimensions: (  25,  25,  25)

     Estimated max dynamical RAM per process >       1.78MB

     Estimated total allocated dynamical RAM >       7.14MB

     The potential is recalculated from file :
     ./_ph0/silicon.10.334.save/charge-density.dat

     Starting wfc are    8 atomic wfcs

     Band Structure Calculation
     Davidson diagonalization with overlap

     ethr =  1.25E-10,  avg # of iterations = 12.2

     total cpu time spent up to now is        2.8 secs

     End of band structure calculation

          k =-0.1250 0.1250 0.1250 (   770 PWs)   bands (ev):

    -5.6384   4.3857   5.6950   5.6950

          k = 0.3750-0.3750 0.6250 (   763 PWs)   bands (ev):

    -3.4737  -0.6823   3.7308   4.4442

          k =-0.3750 0.3750-0.1250 (   773 PWs)   bands (ev):

    -4.6124   1.3943   3.7102   5.2150

          k = 0.1250-0.1250 0.3750 (   768 PWs)   bands (ev):

    -5.1108   2.7700   4.6878   4.7515

          k = 0.3750-0.3750 0.6250 (   763 PWs)   bands (ev):

    -3.4737  -0.6823   3.7308   4.4442

          k = 0.8750-0.8750 1.1250 (   770 PWs)   bands (ev):

    -5.6384   4.3857   5.6950   5.6950

          k = 0.1250-0.1250 0.3750 (   768 PWs)   bands (ev):

    -5.1108   2.7700   4.6878   4.7515

          k = 0.6250-0.6250 0.8750 (   773 PWs)   bands (ev):

    -4.6124   1.3943   3.7102   5.2150

          k =-0.1250 0.6250 0.1250 (   766 PWs)   bands (ev):

    -4.0801   1.0599   3.3620   3.8144

          k = 0.3750 0.1250 0.6250 (   768 PWs)   bands (ev):

    -3.6649   0.1876   2.7205   4.0888

          k = 0.6250-0.1250 0.8750 (   755 PWs)   bands (ev):

    -2.4416  -0.9008   2.0088   3.0846

          k = 1.1250-0.6250 1.3750 (   773 PWs)   bands (ev):

    -4.6124   1.3943   3.7102   5.2150

          k = 0.3750 0.1250 0.6250 (   768 PWs)   bands (ev):

    -3.6649   0.1876   2.7205   4.0888

          k = 0.8750-0.3750 1.1250 (   766 PWs)   bands (ev):

    -4.0801   1.0599   3.3620   3.8144

          k =-0.1250-0.8750 0.1250 (   762 PWs)   bands (ev):

    -2.6091  -0.8036   2.6182   3.3478

          k = 0.3750-1.3750 0.6250 (   763 PWs)   bands (ev):

    -3.4737  -0.6823   3.7308   4.4442

          k =-0.3750 0.3750 0.3750 (   763 PWs)   bands (ev):

    -4.1798   0.1052   4.9083   4.9083

          k = 0.1250-0.1250 0.8750 (   762 PWs)   bands (ev):

    -2.6091  -0.8036   2.6182   3.3478

          k = 0.3750-0.3750 1.1250 (   767 PWs)   bands (ev):

    -2.9783  -0.5981   2.0668   4.1275

          k = 0.8750-0.8750 1.6250 (   766 PWs)   bands (ev):

    -4.0801   1.0599   3.3620   3.8144

          k = 0.1250-0.1250 0.1250 (   770 PWs)   bands (ev):

    -5.6384   4.3857   5.6950   5.6950

          k = 0.6250-0.6250 0.6250 (   763 PWs)   bands (ev):

    -4.1798   0.1052   4.9083   4.9083

          k =-0.3750-0.3750-0.1250 (   773 PWs)   bands (ev):

    -4.6124   1.3943   3.7102   5.2150

          k = 0.1250-0.8750 0.3750 (   755 PWs)   bands (ev):

    -2.4416  -0.9008   2.0088   3.0846

          k =-0.1250-0.3750 0.3750 (   773 PWs)   bands (ev):

    -4.6124   1.3943   3.7102   5.2150

          k = 0.3750-0.8750 0.8750 (   766 PWs)   bands (ev):

    -4.0801   1.0599   3.3620   3.8144

          k = 0.3750 0.3750 0.6250 (   763 PWs)   bands (ev):

    -3.4737  -0.6823   3.7308   4.4442

          k = 0.8750-0.1250 1.1250 (   762 PWs)   bands (ev):

    -2.6091  -0.8036   2.6182   3.3478

          k = 0.6250 0.3750-0.3750 (   763 PWs)   bands (ev):

    -3.4737  -0.6823   3.7308   4.4442

          k = 1.1250-0.1250 0.1250 (   762 PWs)   bands (ev):

    -2.6091  -0.8036   2.6182   3.3478

          k = 0.1250 0.1250 0.3750 (   768 PWs)   bands (ev):

    -5.1108   2.7700   4.6878   4.7515

          k = 0.6250-0.3750 0.8750 (   768 PWs)   bands (ev):

    -3.6649   0.1876   2.7205   4.0888

          k = 0.3750 0.1250-0.1250 (   768 PWs)   bands (ev):

    -5.1108   2.7700   4.6878   4.7515

          k = 0.8750-0.3750 0.3750 (   767 PWs)   bands (ev):

    -2.9783  -0.5981   2.0668   4.1275

          k =-0.1250-0.6250-0.1250 (   766 PWs)   bands (ev):

    -4.0801   1.0599   3.3620   3.8144

          k = 0.3750-1.1250 0.3750 (   767 PWs)   bands (ev):

    -2.9783  -0.5981   2.0668   4.1275

          k = 0.1250-0.6250 0.1250 (   766 PWs)   bands (ev):

    -4.0801   1.0599   3.3620   3.8144

          k = 0.6250-1.1250 0.6250 (   773 PWs)   bands (ev):

    -4.6124   1.3943   3.7102   5.2150

          k = 0.6250 0.1250 0.8750 (   755 PWs)   bands (ev):

    -2.4416  -0.9008   2.0088   3.0846

          k = 1.1250-0.3750 1.3750 (   768 PWs)   bands (ev):

    -3.6649   0.1876   2.7205   4.0888

          k =-0.8750 0.1250 0.6250 (   755 PWs)   bands (ev):

    -2.4416  -0.9008   2.0088   3.0846

          k =-0.3750-0.3750 1.1250 (   767 PWs)   bands (ev):

    -2.9783  -0.5981   2.0668   4.1275

          k = 0.8750 0.1250-0.6250 (   755 PWs)   bands (ev):

    -2.4416  -0.9008   2.0088   3.0846

          k = 1.3750-0.3750-0.1250 (   768 PWs)   bands (ev):

    -3.6649   0.1876   2.7205   4.0888

          k = 0.3750-0.1250 0.6250 (   768 PWs)   bands (ev):

    -3.6649   0.1876   2.7205   4.0888

          k = 0.8750-0.6250 1.1250 (   768 PWs)   bands (ev):

    -5.1108   2.7700   4.6878   4.7515

          k =-0.6250-0.1250 0.3750 (   768 PWs)   bands (ev):

    -3.6649   0.1876   2.7205   4.0888

          k =-0.1250-0.6250 0.8750 (   755 PWs)   bands (ev):

    -2.4416  -0.9008   2.0088   3.0846

          k = 0.6250-0.1250-0.3750 (   768 PWs)   bands (ev):

    -3.6649   0.1876   2.7205   4.0888

          k = 1.1250-0.6250 0.1250 (   755 PWs)   bands (ev):

    -2.4416  -0.9008   2.0088   3.0846

          k =-0.1250 0.8750-0.1250 (   762 PWs)   bands (ev):

    -2.6091  -0.8036   2.6182   3.3478

          k = 0.3750 0.3750 0.3750 (   763 PWs)   bands (ev):

    -4.1798   0.1052   4.9083   4.9083

          k = 0.1250 0.8750 0.1250 (   762 PWs)   bands (ev):

    -2.6091  -0.8036   2.6182   3.3478

          k = 0.6250 0.3750 0.6250 (   763 PWs)   bands (ev):

    -3.4737  -0.6823   3.7308   4.4442

          k = 0.3750-0.3750 0.3750 (   763 PWs)   bands (ev):

    -4.1798   0.1052   4.9083   4.9083

          k = 0.8750-0.8750 0.8750 (   770 PWs)   bands (ev):

    -5.6384   4.3857   5.6950   5.6950

          k = 0.3750 0.3750 1.1250 (   767 PWs)   bands (ev):

    -2.9783  -0.5981   2.0668   4.1275

          k = 0.8750-0.1250 1.6250 (   755 PWs)   bands (ev):

    -2.4416  -0.9008   2.0088   3.0846

          k = 1.1250 0.3750-0.3750 (   767 PWs)   bands (ev):

    -2.9783  -0.5981   2.0668   4.1275

          k = 1.6250-0.1250 0.1250 (   768 PWs)   bands (ev):

    -5.1108   2.7700   4.6878   4.7515

     highest occupied level (ev):     5.6950

     Writing output data file silicon.10.334.save

                                                                                

     bravais-lattice index     =            2
     lattice parameter (alat)  =      10.3340  a.u.
     unit-cell volume          =     275.8960 (a.u.)^3
     number of atoms/cell      =            2
     number of atomic types    =            1
     kinetic-energy cut-off    =      30.0000  Ry
     charge density cut-off    =     240.0000  Ry
     convergence threshold     =      1.0E-12
     beta                      =       0.7000
     number of iterations used =            4
     Exchange-correlation      = SLA  PW   PBE  PBE ( 1  4  3  4 0 0)


     celldm(1)=   10.33400  celldm(2)=    0.00000  celldm(3)=    0.00000
     celldm(4)=    0.00000  celldm(5)=    0.00000  celldm(6)=    0.00000

     crystal axes: (cart. coord. in units of alat)
               a(1) = ( -0.5000  0.0000  0.5000 )  
               a(2) = (  0.0000  0.5000  0.5000 )  
               a(3) = ( -0.5000  0.5000  0.0000 )  

     reciprocal axes: (cart. coord. in units 2 pi/alat)
               b(1) = ( -1.0000 -1.0000  1.0000 )  
               b(2) = (  1.0000  1.0000  1.0000 )  
               b(3) = ( -1.0000  1.0000 -1.0000 )  


     Atoms inside the unit cell: 

     Cartesian axes

     site n.  atom      mass           positions (alat units)
        1     Si  28.0860   tau(    1) = (    0.00000    0.00000    0.00000  )
        2     Si  28.0860   tau(    2) = (    0.25000    0.25000    0.25000  )

     Computing dynamical matrix for 
                    q = (   0.5000000  -0.5000000   0.5000000 )

     13 Sym.Ops. (with q -> -q+G )


     G cutoff =  649.2148  (   4316 G-vectors)     FFT grid: ( 40, 40, 40)
     G cutoff =  324.6074  (   1546 G-vectors)  smooth grid: ( 25, 25, 25)
     number of k points=    60

     PseudoPot. # 1 for Si read from file:
     /home/s1333534/quantum_espresso/qe-6.1/pseudo/si_pbe_v1.uspp.F.UPF.txt
     MD5 check sum: a056efeee980c13900f22a371efd63c1
     Pseudo is Ultrasoft + core correction, Zval =  4.0
     Generated by new atomic code, or converted to UPF format
     Using radial grid of  899 points,  6 beta functions with: 
                l(1) =   0
                l(2) =   0
                l(3) =   1
                l(4) =   1
                l(5) =   2
                l(6) =   2
     Q(r) pseudized with  8 coefficients,  rinner =    0.900   0.900   0.900
                                                       0.900   0.900


     Atomic displacements:
     There are   4 irreducible representations

     Representation     1      1 modes -  To be done

     Representation     2      1 modes -  To be done

     Representation     3      2 modes -  To be done

     Representation     4      2 modes -  To be done



     Alpha used in Ewald sum =   2.5000
     PHONON       :    29.55s CPU        39.66s WALL



     Representation #  1 mode #   1

     Self-consistent Calculation

      iter #   1 total cpu time :    40.0 secs   av.it.:   5.1
      thresh= 1.000E-02 alpha_mix =  0.700 |ddv_scf|^2 =  3.047E-06

      iter #   2 total cpu time :    40.5 secs   av.it.:  10.1
      thresh= 1.746E-04 alpha_mix =  0.700 |ddv_scf|^2 =  2.798E-06

      iter #   3 total cpu time :    40.9 secs   av.it.:   9.4
      thresh= 1.673E-04 alpha_mix =  0.700 |ddv_scf|^2 =  1.675E-09

      iter #   4 total cpu time :    41.3 secs   av.it.:   9.6
      thresh= 4.093E-06 alpha_mix =  0.700 |ddv_scf|^2 =  1.612E-11

      iter #   5 total cpu time :    41.7 secs   av.it.:   9.5
      thresh= 4.015E-07 alpha_mix =  0.700 |ddv_scf|^2 =  2.245E-13

     End of self-consistent calculation

     Convergence has been achieved 


     Representation #  2 mode #   2

     Self-consistent Calculation

      iter #   1 total cpu time :    42.2 secs   av.it.:   6.0
      thresh= 1.000E-02 alpha_mix =  0.700 |ddv_scf|^2 =  4.333E-05

      iter #   2 total cpu time :    42.7 secs   av.it.:  10.0
      thresh= 6.583E-04 alpha_mix =  0.700 |ddv_scf|^2 =  1.349E-04

      iter #   3 total cpu time :    43.2 secs   av.it.:   8.9
      thresh= 1.161E-03 alpha_mix =  0.700 |ddv_scf|^2 =  9.797E-09

      iter #   4 total cpu time :    43.7 secs   av.it.:  10.1
      thresh= 9.898E-06 alpha_mix =  0.700 |ddv_scf|^2 =  4.974E-10

      iter #   5 total cpu time :    44.1 secs   av.it.:  10.4
      thresh= 2.230E-06 alpha_mix =  0.700 |ddv_scf|^2 =  1.497E-11

      iter #   6 total cpu time :    44.6 secs   av.it.:   9.9
      thresh= 3.870E-07 alpha_mix =  0.700 |ddv_scf|^2 =  1.110E-13

     End of self-consistent calculation

     Convergence has been achieved 


     Representation #  3 modes #   3  4

     Self-consistent Calculation

      iter #   1 total cpu time :    45.4 secs   av.it.:   5.0
      thresh= 1.000E-02 alpha_mix =  0.700 |ddv_scf|^2 =  1.960E-08

      iter #   2 total cpu time :    46.6 secs   av.it.:  11.1
      thresh= 1.400E-05 alpha_mix =  0.700 |ddv_scf|^2 =  1.155E-09

      iter #   3 total cpu time :    47.6 secs   av.it.:  10.8
      thresh= 3.398E-06 alpha_mix =  0.700 |ddv_scf|^2 =  3.874E-11

      iter #   4 total cpu time :    48.4 secs   av.it.:  10.8
      thresh= 6.225E-07 alpha_mix =  0.700 |ddv_scf|^2 =  3.158E-13

     End of self-consistent calculation

     Convergence has been achieved 


     Representation #  4 modes #   5  6

     Self-consistent Calculation

      iter #   1 total cpu time :    49.4 secs   av.it.:   5.1
      thresh= 1.000E-02 alpha_mix =  0.700 |ddv_scf|^2 =  1.004E-07

      iter #   2 total cpu time :    50.3 secs   av.it.:  11.2
      thresh= 3.169E-05 alpha_mix =  0.700 |ddv_scf|^2 =  8.058E-09

      iter #   3 total cpu time :    51.1 secs   av.it.:  11.1
      thresh= 8.976E-06 alpha_mix =  0.700 |ddv_scf|^2 =  2.119E-10

      iter #   4 total cpu time :    51.8 secs   av.it.:  10.1
      thresh= 1.456E-06 alpha_mix =  0.700 |ddv_scf|^2 =  3.841E-13

     End of self-consistent calculation

     Convergence has been achieved 

     Number of q in the star =    4
     List of q in the star:
          1   0.500000000  -0.500000000   0.500000000
          2   0.500000000   0.500000000   0.500000000
          3  -0.500000000   0.500000000   0.500000000
          4   0.500000000   0.500000000  -0.500000000

     Diagonalizing the dynamical matrix

     q = (    0.500000000  -0.500000000   0.500000000 ) 

 **************************************************************************
     freq (    1) =       3.302997 [THz] =     110.176118 [cm-1]
     freq (    2) =       3.302997 [THz] =     110.176118 [cm-1]
     freq (    3) =      11.096420 [THz] =     370.136741 [cm-1]
     freq (    4) =      11.963355 [THz] =     399.054583 [cm-1]
     freq (    5) =      14.278815 [THz] =     476.290008 [cm-1]
     freq (    6) =      14.278815 [THz] =     476.290008 [cm-1]
 **************************************************************************

     Calculation of q =    0.0000000   0.5000000   0.0000000

   Info: using nr1, nr2, nr3 values from input

   Info: using nr1, nr2, nr3 values from input

     Parallelization info
     --------------------
     sticks:   dense  smooth     PW     G-vecs:    dense   smooth      PW
     Min         218     109     37                 4315     1545     309
     Max         220     110     38                 4316     1546     312
     Sum         877     439    151                17261     6183    1243



     bravais-lattice index     =            2
     lattice parameter (alat)  =      10.3340  a.u.
     unit-cell volume          =     275.8960 (a.u.)^3
     number of atoms/cell      =            2
     number of atomic types    =            1
     number of electrons       =         8.00
     number of Kohn-Sham states=            4
     kinetic-energy cutoff     =      30.0000  Ry
     charge density cutoff     =     240.0000  Ry
     Exchange-correlation      = SLA  PW   PBE  PBE ( 1  4  3  4 0 0)

     celldm(1)=  10.334000  celldm(2)=   0.000000  celldm(3)=   0.000000
     celldm(4)=   0.000000  celldm(5)=   0.000000  celldm(6)=   0.000000

     crystal axes: (cart. coord. in units of alat)
               a(1) = (  -0.500000   0.000000   0.500000 )  
               a(2) = (   0.000000   0.500000   0.500000 )  
               a(3) = (  -0.500000   0.500000   0.000000 )  

     reciprocal axes: (cart. coord. in units 2 pi/alat)
               b(1) = ( -1.000000 -1.000000  1.000000 )  
               b(2) = (  1.000000  1.000000  1.000000 )  
               b(3) = ( -1.000000  1.000000 -1.000000 )  


     PseudoPot. # 1 for Si read from file:
     /home/s1333534/quantum_espresso/qe-6.1/pseudo/si_pbe_v1.uspp.F.UPF.txt
     MD5 check sum: a056efeee980c13900f22a371efd63c1
     Pseudo is Ultrasoft + core correction, Zval =  4.0
     Generated by new atomic code, or converted to UPF format
     Using radial grid of  899 points,  6 beta functions with: 
                l(1) =   0
                l(2) =   0
                l(3) =   1
                l(4) =   1
                l(5) =   2
                l(6) =   2
     Q(r) pseudized with  8 coefficients,  rinner =    0.900   0.900   0.900
                                                       0.900   0.900

     atomic species   valence    mass     pseudopotential
        Si             4.00    28.08600     Si( 1.00)

     48 Sym. Ops., with inversion, found



   Cartesian axes

     site n.     atom                  positions (alat units)
         1           Si  tau(   1) = (   0.0000000   0.0000000   0.0000000  )
         2           Si  tau(   2) = (   0.2500000   0.2500000   0.2500000  )

     number of k points=    80
                       cart. coord. in units 2pi/alat
        k(    1) = (  -0.1250000   0.1250000   0.1250000), wk =   0.0312500
        k(    2) = (  -0.1250000   0.6250000   0.1250000), wk =   0.0000000
        k(    3) = (  -0.3750000   0.3750000  -0.1250000), wk =   0.0625000
        k(    4) = (  -0.3750000   0.8750000  -0.1250000), wk =   0.0000000
        k(    5) = (   0.3750000  -0.3750000   0.6250000), wk =   0.0625000
        k(    6) = (   0.3750000   0.1250000   0.6250000), wk =   0.0000000
        k(    7) = (   0.1250000  -0.1250000   0.3750000), wk =   0.0625000
        k(    8) = (   0.1250000   0.3750000   0.3750000), wk =   0.0000000
        k(    9) = (  -0.1250000   0.6250000   0.1250000), wk =   0.0312500
        k(   10) = (  -0.1250000   1.1250000   0.1250000), wk =   0.0000000
        k(   11) = (   0.6250000  -0.1250000   0.8750000), wk =   0.0625000
        k(   12) = (   0.6250000   0.3750000   0.8750000), wk =   0.0000000
        k(   13) = (   0.3750000   0.1250000   0.6250000), wk =   0.0625000
        k(   14) = (   0.3750000   0.6250000   0.6250000), wk =   0.0000000
        k(   15) = (  -0.1250000  -0.8750000   0.1250000), wk =   0.0312500
        k(   16) = (  -0.1250000  -0.3750000   0.1250000), wk =   0.0000000
        k(   17) = (  -0.3750000   0.3750000   0.3750000), wk =   0.0312500
        k(   18) = (  -0.3750000   0.8750000   0.3750000), wk =   0.0000000
        k(   19) = (   0.3750000  -0.3750000   1.1250000), wk =   0.0625000
        k(   20) = (   0.3750000   0.1250000   1.1250000), wk =   0.0000000
        k(   21) = (  -0.1250000  -0.1250000   0.1250000), wk =   0.0312500
        k(   22) = (  -0.1250000   0.3750000   0.1250000), wk =   0.0000000
        k(   23) = (   0.1250000  -0.3750000   0.3750000), wk =   0.0625000
        k(   24) = (   0.1250000   0.1250000   0.3750000), wk =   0.0000000
        k(   25) = (   0.3750000  -0.1250000   0.3750000), wk =   0.0312500
        k(   26) = (   0.3750000   0.3750000   0.3750000), wk =   0.0000000
        k(   27) = (   0.3750000   0.1250000   0.3750000), wk =   0.0312500
        k(   28) = (   0.3750000   0.6250000   0.3750000), wk =   0.0000000
        k(   29) = (  -0.6250000   0.3750000  -0.3750000), wk =   0.0625000
        k(   30) = (  -0.6250000   0.8750000  -0.3750000), wk =   0.0000000
        k(   31) = (  -0.3750000   0.6250000  -0.3750000), wk =   0.0312500
        k(   32) = (  -0.3750000   1.1250000  -0.3750000), wk =   0.0000000
        k(   33) = (  -0.3750000  -0.6250000  -0.3750000), wk =   0.0312500
        k(   34) = (  -0.3750000  -0.1250000  -0.3750000), wk =   0.0000000
        k(   35) = (  -0.3750000   0.1250000  -0.1250000), wk =   0.0625000
        k(   36) = (  -0.3750000   0.6250000  -0.1250000), wk =   0.0000000
        k(   37) = (  -0.1250000   0.3750000  -0.1250000), wk =   0.0312500
        k(   38) = (  -0.1250000   0.8750000  -0.1250000), wk =   0.0000000
        k(   39) = (  -0.1250000  -0.3750000  -0.1250000), wk =   0.0312500
        k(   40) = (  -0.1250000   0.1250000  -0.1250000), wk =   0.0000000
        k(   41) = (  -0.1250000  -0.6250000   0.1250000), wk =   0.0312500
        k(   42) = (  -0.1250000  -0.1250000   0.1250000), wk =   0.0000000
        k(   43) = (   0.6250000  -0.1250000  -0.1250000), wk =   0.0625000
        k(   44) = (   0.6250000   0.3750000  -0.1250000), wk =   0.0000000
        k(   45) = (   0.6250000   0.1250000   0.1250000), wk =   0.0625000
        k(   46) = (   0.6250000   0.6250000   0.1250000), wk =   0.0000000
        k(   47) = (  -0.8750000   0.1250000  -0.6250000), wk =   0.0625000
        k(   48) = (  -0.8750000   0.6250000  -0.6250000), wk =   0.0000000
        k(   49) = (  -0.1250000   0.6250000  -0.8750000), wk =   0.0625000
        k(   50) = (  -0.1250000   1.1250000  -0.8750000), wk =   0.0000000
        k(   51) = (  -0.1250000   0.8750000  -0.6250000), wk =   0.0625000
        k(   52) = (  -0.1250000   1.3750000  -0.6250000), wk =   0.0000000
        k(   53) = (  -0.1250000  -0.8750000  -0.6250000), wk =   0.0625000
        k(   54) = (  -0.1250000  -0.3750000  -0.6250000), wk =   0.0000000
        k(   55) = (   0.8750000  -0.6250000   0.1250000), wk =   0.0625000
        k(   56) = (   0.8750000  -0.1250000   0.1250000), wk =   0.0000000
        k(   57) = (  -0.6250000  -0.1250000  -0.3750000), wk =   0.0625000
        k(   58) = (  -0.6250000   0.3750000  -0.3750000), wk =   0.0000000
        k(   59) = (   0.1250000   0.3750000  -0.6250000), wk =   0.0625000
        k(   60) = (   0.1250000   0.8750000  -0.6250000), wk =   0.0000000
        k(   61) = (   0.1250000   0.6250000  -0.3750000), wk =   0.0625000
        k(   62) = (   0.1250000   1.1250000  -0.3750000), wk =   0.0000000
        k(   63) = (   0.1250000  -0.6250000  -0.3750000), wk =   0.0625000
        k(   64) = (   0.1250000  -0.1250000  -0.3750000), wk =   0.0000000
        k(   65) = (   0.6250000  -0.3750000  -0.1250000), wk =   0.0625000
        k(   66) = (   0.6250000   0.1250000  -0.1250000), wk =   0.0000000
        k(   67) = (  -0.1250000   0.8750000   0.1250000), wk =   0.0312500
        k(   68) = (  -0.1250000   1.3750000   0.1250000), wk =   0.0000000
        k(   69) = (  -0.8750000  -0.1250000  -0.1250000), wk =   0.0625000
        k(   70) = (  -0.8750000   0.3750000  -0.1250000), wk =   0.0000000
        k(   71) = (  -0.8750000   0.1250000   0.1250000), wk =   0.0625000
        k(   72) = (  -0.8750000   0.6250000   0.1250000), wk =   0.0000000
        k(   73) = (  -0.3750000  -0.3750000   0.3750000), wk =   0.0312500
        k(   74) = (  -0.3750000   0.1250000   0.3750000), wk =   0.0000000
        k(   75) = (  -1.1250000   0.3750000  -0.3750000), wk =   0.0625000
        k(   76) = (  -1.1250000   0.8750000  -0.3750000), wk =   0.0000000
        k(   77) = (  -0.3750000   1.1250000  -0.3750000), wk =   0.0312500
        k(   78) = (  -0.3750000   1.6250000  -0.3750000), wk =   0.0000000
        k(   79) = (  -0.3750000  -1.1250000  -0.3750000), wk =   0.0312500
        k(   80) = (  -0.3750000  -0.6250000  -0.3750000), wk =   0.0000000

     Dense  grid:    17261 G-vectors     FFT dimensions: (  40,  40,  40)

     Smooth grid:     6183 G-vectors     FFT dimensions: (  25,  25,  25)

     Estimated max dynamical RAM per process >       1.78MB

     Estimated total allocated dynamical RAM >       7.14MB

     The potential is recalculated from file :
     ./_ph0/silicon.10.334.save/charge-density.dat

     Starting wfc are    8 atomic wfcs

     Band Structure Calculation
     Davidson diagonalization with overlap

     ethr =  1.25E-10,  avg # of iterations = 12.2

     total cpu time spent up to now is        3.9 secs

     End of band structure calculation

          k =-0.1250 0.1250 0.1250 (   770 PWs)   bands (ev):

    -5.6384   4.3857   5.6950   5.6950

          k =-0.1250 0.6250 0.1250 (   766 PWs)   bands (ev):

    -4.0801   1.0599   3.3620   3.8144

          k =-0.3750 0.3750-0.1250 (   773 PWs)   bands (ev):

    -4.6124   1.3943   3.7102   5.2150

          k =-0.3750 0.8750-0.1250 (   755 PWs)   bands (ev):

    -2.4416  -0.9008   2.0088   3.0846

          k = 0.3750-0.3750 0.6250 (   763 PWs)   bands (ev):

    -3.4737  -0.6823   3.7308   4.4442

          k = 0.3750 0.1250 0.6250 (   768 PWs)   bands (ev):

    -3.6649   0.1876   2.7205   4.0888

          k = 0.1250-0.1250 0.3750 (   768 PWs)   bands (ev):

    -5.1108   2.7700   4.6878   4.7515

          k = 0.1250 0.3750 0.3750 (   773 PWs)   bands (ev):

    -4.6124   1.3943   3.7102   5.2150

          k =-0.1250 0.6250 0.1250 (   766 PWs)   bands (ev):

    -4.0801   1.0599   3.3620   3.8144

          k =-0.1250 1.1250 0.1250 (   762 PWs)   bands (ev):

    -2.6091  -0.8036   2.6182   3.3478

          k = 0.6250-0.1250 0.8750 (   755 PWs)   bands (ev):

    -2.4416  -0.9008   2.0088   3.0846

          k = 0.6250 0.3750 0.8750 (   768 PWs)   bands (ev):

    -3.6649   0.1876   2.7205   4.0888

          k = 0.3750 0.1250 0.6250 (   768 PWs)   bands (ev):

    -3.6649   0.1876   2.7205   4.0888

          k = 0.3750 0.6250 0.6250 (   763 PWs)   bands (ev):

    -3.4737  -0.6823   3.7308   4.4442

          k =-0.1250-0.8750 0.1250 (   762 PWs)   bands (ev):

    -2.6091  -0.8036   2.6182   3.3478

          k =-0.1250-0.3750 0.1250 (   768 PWs)   bands (ev):

    -5.1108   2.7700   4.6878   4.7515

          k =-0.3750 0.3750 0.3750 (   763 PWs)   bands (ev):

    -4.1798   0.1052   4.9083   4.9083

          k =-0.3750 0.8750 0.3750 (   767 PWs)   bands (ev):

    -2.9783  -0.5981   2.0668   4.1275

          k = 0.3750-0.3750 1.1250 (   767 PWs)   bands (ev):

    -2.9783  -0.5981   2.0668   4.1275

          k = 0.3750 0.1250 1.1250 (   755 PWs)   bands (ev):

    -2.4416  -0.9008   2.0088   3.0846

          k =-0.1250-0.1250 0.1250 (   770 PWs)   bands (ev):

    -5.6384   4.3857   5.6950   5.6950

          k =-0.1250 0.3750 0.1250 (   768 PWs)   bands (ev):

    -5.1108   2.7700   4.6878   4.7515

          k = 0.1250-0.3750 0.3750 (   773 PWs)   bands (ev):

    -4.6124   1.3943   3.7102   5.2150

          k = 0.1250 0.1250 0.3750 (   768 PWs)   bands (ev):

    -5.1108   2.7700   4.6878   4.7515

          k = 0.3750-0.1250 0.3750 (   773 PWs)   bands (ev):

    -4.6124   1.3943   3.7102   5.2150

          k = 0.3750 0.3750 0.3750 (   763 PWs)   bands (ev):

    -4.1798   0.1052   4.9083   4.9083

          k = 0.3750 0.1250 0.3750 (   773 PWs)   bands (ev):

    -4.6124   1.3943   3.7102   5.2150

          k = 0.3750 0.6250 0.3750 (   763 PWs)   bands (ev):

    -3.4737  -0.6823   3.7308   4.4442

          k =-0.6250 0.3750-0.3750 (   763 PWs)   bands (ev):

    -3.4737  -0.6823   3.7308   4.4442

          k =-0.6250 0.8750-0.3750 (   768 PWs)   bands (ev):

    -3.6649   0.1876   2.7205   4.0888

          k =-0.3750 0.6250-0.3750 (   763 PWs)   bands (ev):

    -3.4737  -0.6823   3.7308   4.4442

          k =-0.3750 1.1250-0.3750 (   767 PWs)   bands (ev):

    -2.9783  -0.5981   2.0668   4.1275

          k =-0.3750-0.6250-0.3750 (   763 PWs)   bands (ev):

    -3.4737  -0.6823   3.7308   4.4442

          k =-0.3750-0.1250-0.3750 (   773 PWs)   bands (ev):

    -4.6124   1.3943   3.7102   5.2150

          k =-0.3750 0.1250-0.1250 (   768 PWs)   bands (ev):

    -5.1108   2.7700   4.6878   4.7515

          k =-0.3750 0.6250-0.1250 (   768 PWs)   bands (ev):

    -3.6649   0.1876   2.7205   4.0888

          k =-0.1250 0.3750-0.1250 (   768 PWs)   bands (ev):

    -5.1108   2.7700   4.6878   4.7515

          k =-0.1250 0.8750-0.1250 (   762 PWs)   bands (ev):

    -2.6091  -0.8036   2.6182   3.3478

          k =-0.1250-0.3750-0.1250 (   768 PWs)   bands (ev):

    -5.1108   2.7700   4.6878   4.7515

          k =-0.1250 0.1250-0.1250 (   770 PWs)   bands (ev):

    -5.6384   4.3857   5.6950   5.6950

          k =-0.1250-0.6250 0.1250 (   766 PWs)   bands (ev):

    -4.0801   1.0599   3.3620   3.8144

          k =-0.1250-0.1250 0.1250 (   770 PWs)   bands (ev):

    -5.6384   4.3857   5.6950   5.6950

          k = 0.6250-0.1250-0.1250 (   766 PWs)   bands (ev):

    -4.0801   1.0599   3.3620   3.8144

          k = 0.6250 0.3750-0.1250 (   768 PWs)   bands (ev):

    -3.6649   0.1876   2.7205   4.0888

          k = 0.6250 0.1250 0.1250 (   766 PWs)   bands (ev):

    -4.0801   1.0599   3.3620   3.8144

          k = 0.6250 0.6250 0.1250 (   767 PWs)   bands (ev):

    -2.9783  -0.5981   2.0668   4.1275

          k =-0.8750 0.1250-0.6250 (   755 PWs)   bands (ev):

    -2.4416  -0.9008   2.0088   3.0846

          k =-0.8750 0.6250-0.6250 (   773 PWs)   bands (ev):

    -4.6124   1.3943   3.7102   5.2150

          k =-0.1250 0.6250-0.8750 (   755 PWs)   bands (ev):

    -2.4416  -0.9008   2.0088   3.0846

          k =-0.1250 1.1250-0.8750 (   762 PWs)   bands (ev):

    -2.6091  -0.8036   2.6182   3.3478

          k =-0.1250 0.8750-0.6250 (   755 PWs)   bands (ev):

    -2.4416  -0.9008   2.0088   3.0846

          k =-0.1250 1.3750-0.6250 (   767 PWs)   bands (ev):

    -2.9783  -0.5981   2.0668   4.1275

          k =-0.1250-0.8750-0.6250 (   755 PWs)   bands (ev):

    -2.4416  -0.9008   2.0088   3.0846

          k =-0.1250-0.3750-0.6250 (   768 PWs)   bands (ev):

    -3.6649   0.1876   2.7205   4.0888

          k = 0.8750-0.6250 0.1250 (   755 PWs)   bands (ev):

    -2.4416  -0.9008   2.0088   3.0846

          k = 0.8750-0.1250 0.1250 (   762 PWs)   bands (ev):

    -2.6091  -0.8036   2.6182   3.3478

          k =-0.6250-0.1250-0.3750 (   768 PWs)   bands (ev):

    -3.6649   0.1876   2.7205   4.0888

          k =-0.6250 0.3750-0.3750 (   763 PWs)   bands (ev):

    -3.4737  -0.6823   3.7308   4.4442

          k = 0.1250 0.3750-0.6250 (   768 PWs)   bands (ev):

    -3.6649   0.1876   2.7205   4.0888

          k = 0.1250 0.8750-0.6250 (   755 PWs)   bands (ev):

    -2.4416  -0.9008   2.0088   3.0846

          k = 0.1250 0.6250-0.3750 (   768 PWs)   bands (ev):

    -3.6649   0.1876   2.7205   4.0888

          k = 0.1250 1.1250-0.3750 (   755 PWs)   bands (ev):

    -2.4416  -0.9008   2.0088   3.0846

          k = 0.1250-0.6250-0.3750 (   768 PWs)   bands (ev):

    -3.6649   0.1876   2.7205   4.0888

          k = 0.1250-0.1250-0.3750 (   768 PWs)   bands (ev):

    -5.1108   2.7700   4.6878   4.7515

          k = 0.6250-0.3750-0.1250 (   768 PWs)   bands (ev):

    -3.6649   0.1876   2.7205   4.0888

          k = 0.6250 0.1250-0.1250 (   766 PWs)   bands (ev):

    -4.0801   1.0599   3.3620   3.8144

          k =-0.1250 0.8750 0.1250 (   762 PWs)   bands (ev):

    -2.6091  -0.8036   2.6182   3.3478

          k =-0.1250 1.3750 0.1250 (   766 PWs)   bands (ev):

    -4.0801   1.0599   3.3620   3.8144

          k =-0.8750-0.1250-0.1250 (   762 PWs)   bands (ev):

    -2.6091  -0.8036   2.6182   3.3478

          k =-0.8750 0.3750-0.1250 (   755 PWs)   bands (ev):

    -2.4416  -0.9008   2.0088   3.0846

          k =-0.8750 0.1250 0.1250 (   762 PWs)   bands (ev):

    -2.6091  -0.8036   2.6182   3.3478

          k =-0.8750 0.6250 0.1250 (   755 PWs)   bands (ev):

    -2.4416  -0.9008   2.0088   3.0846

          k =-0.3750-0.3750 0.3750 (   763 PWs)   bands (ev):

    -4.1798   0.1052   4.9083   4.9083

          k =-0.3750 0.1250 0.3750 (   773 PWs)   bands (ev):

    -4.6124   1.3943   3.7102   5.2150

          k =-1.1250 0.3750-0.3750 (   767 PWs)   bands (ev):

    -2.9783  -0.5981   2.0668   4.1275

          k =-1.1250 0.8750-0.3750 (   766 PWs)   bands (ev):

    -4.0801   1.0599   3.3620   3.8144

          k =-0.3750 1.1250-0.3750 (   767 PWs)   bands (ev):

    -2.9783  -0.5981   2.0668   4.1275

          k =-0.3750 1.6250-0.3750 (   763 PWs)   bands (ev):

    -4.1798   0.1052   4.9083   4.9083

          k =-0.3750-1.1250-0.3750 (   767 PWs)   bands (ev):

    -2.9783  -0.5981   2.0668   4.1275

          k =-0.3750-0.6250-0.3750 (   763 PWs)   bands (ev):

    -3.4737  -0.6823   3.7308   4.4442

     highest occupied level (ev):     5.6950

     Writing output data file silicon.10.334.save

                                                                                

     bravais-lattice index     =            2
     lattice parameter (alat)  =      10.3340  a.u.
     unit-cell volume          =     275.8960 (a.u.)^3
     number of atoms/cell      =            2
     number of atomic types    =            1
     kinetic-energy cut-off    =      30.0000  Ry
     charge density cut-off    =     240.0000  Ry
     convergence threshold     =      1.0E-12
     beta                      =       0.7000
     number of iterations used =            4
     Exchange-correlation      = SLA  PW   PBE  PBE ( 1  4  3  4 0 0)


     celldm(1)=   10.33400  celldm(2)=    0.00000  celldm(3)=    0.00000
     celldm(4)=    0.00000  celldm(5)=    0.00000  celldm(6)=    0.00000

     crystal axes: (cart. coord. in units of alat)
               a(1) = ( -0.5000  0.0000  0.5000 )  
               a(2) = (  0.0000  0.5000  0.5000 )  
               a(3) = ( -0.5000  0.5000  0.0000 )  

     reciprocal axes: (cart. coord. in units 2 pi/alat)
               b(1) = ( -1.0000 -1.0000  1.0000 )  
               b(2) = (  1.0000  1.0000  1.0000 )  
               b(3) = ( -1.0000  1.0000 -1.0000 )  


     Atoms inside the unit cell: 

     Cartesian axes

     site n.  atom      mass           positions (alat units)
        1     Si  28.0860   tau(    1) = (    0.00000    0.00000    0.00000  )
        2     Si  28.0860   tau(    2) = (    0.25000    0.25000    0.25000  )

     Computing dynamical matrix for 
                    q = (   0.0000000   0.5000000   0.0000000 )

      8 Sym.Ops. (no q -> -q+G )


     G cutoff =  649.2148  (   4315 G-vectors)     FFT grid: ( 40, 40, 40)
     G cutoff =  324.6074  (   1546 G-vectors)  smooth grid: ( 25, 25, 25)
     number of k points=    80

     PseudoPot. # 1 for Si read from file:
     /home/s1333534/quantum_espresso/qe-6.1/pseudo/si_pbe_v1.uspp.F.UPF.txt
     MD5 check sum: a056efeee980c13900f22a371efd63c1
     Pseudo is Ultrasoft + core correction, Zval =  4.0
     Generated by new atomic code, or converted to UPF format
     Using radial grid of  899 points,  6 beta functions with: 
                l(1) =   0
                l(2) =   0
                l(3) =   1
                l(4) =   1
                l(5) =   2
                l(6) =   2
     Q(r) pseudized with  8 coefficients,  rinner =    0.900   0.900   0.900
                                                       0.900   0.900

     Mode symmetry, C_4v (4mm)  point group:


     Atomic displacements:
     There are   4 irreducible representations

     Representation     1      1 modes -A_1  G_1 D_1  To be done

     Representation     2      1 modes -B_2  G_4 D_2'  To be done

     Representation     3      2 modes -E    G_5 D_5  To be done

     Representation     4      2 modes -E    G_5 D_5  To be done



     Alpha used in Ewald sum =   2.5000
     PHONON       :    39.81s CPU        54.32s WALL



     Representation #  1 mode #   1

     Self-consistent Calculation

      iter #   1 total cpu time :    54.7 secs   av.it.:   6.2
      thresh= 1.000E-02 alpha_mix =  0.700 |ddv_scf|^2 =  3.737E-04

      iter #   2 total cpu time :    55.2 secs   av.it.:   9.5
      thresh= 1.933E-03 alpha_mix =  0.700 |ddv_scf|^2 =  4.961E-03

      iter #   3 total cpu time :    55.7 secs   av.it.:   7.5
      thresh= 7.044E-03 alpha_mix =  0.700 |ddv_scf|^2 =  7.428E-09

      iter #   4 total cpu time :    56.2 secs   av.it.:  10.2
      thresh= 8.618E-06 alpha_mix =  0.700 |ddv_scf|^2 =  7.256E-10

      iter #   5 total cpu time :    56.7 secs   av.it.:   9.9
      thresh= 2.694E-06 alpha_mix =  0.700 |ddv_scf|^2 =  8.115E-11

      iter #   6 total cpu time :    57.1 secs   av.it.:   9.5
      thresh= 9.008E-07 alpha_mix =  0.700 |ddv_scf|^2 =  2.389E-13

     End of self-consistent calculation

     Convergence has been achieved 


     Representation #  2 mode #   2

     Self-consistent Calculation

      iter #   1 total cpu time :    57.6 secs   av.it.:   5.1
      thresh= 1.000E-02 alpha_mix =  0.700 |ddv_scf|^2 =  5.908E-07

      iter #   2 total cpu time :    58.1 secs   av.it.:  10.6
      thresh= 7.686E-05 alpha_mix =  0.700 |ddv_scf|^2 =  1.621E-07

      iter #   3 total cpu time :    58.7 secs   av.it.:  10.2
      thresh= 4.026E-05 alpha_mix =  0.700 |ddv_scf|^2 =  1.654E-09

      iter #   4 total cpu time :    59.2 secs   av.it.:  10.3
      thresh= 4.067E-06 alpha_mix =  0.700 |ddv_scf|^2 =  6.510E-11

      iter #   5 total cpu time :    59.7 secs   av.it.:  10.5
      thresh= 8.068E-07 alpha_mix =  0.700 |ddv_scf|^2 =  3.841E-13

     End of self-consistent calculation

     Convergence has been achieved 


     Representation #  3 modes #   3  4

     Self-consistent Calculation

      iter #   1 total cpu time :    60.5 secs   av.it.:   5.2
      thresh= 1.000E-02 alpha_mix =  0.700 |ddv_scf|^2 =  1.047E-07

      iter #   2 total cpu time :    61.5 secs   av.it.:  11.7
      thresh= 3.236E-05 alpha_mix =  0.700 |ddv_scf|^2 =  1.444E-08

      iter #   3 total cpu time :    62.4 secs   av.it.:  11.2
      thresh= 1.202E-05 alpha_mix =  0.700 |ddv_scf|^2 =  2.431E-10

      iter #   4 total cpu time :    63.3 secs   av.it.:  10.8
      thresh= 1.559E-06 alpha_mix =  0.700 |ddv_scf|^2 =  5.736E-13

     End of self-consistent calculation

     Convergence has been achieved 


     Representation #  4 modes #   5  6

     Self-consistent Calculation

      iter #   1 total cpu time :    64.1 secs   av.it.:   5.3
      thresh= 1.000E-02 alpha_mix =  0.700 |ddv_scf|^2 =  9.598E-08

      iter #   2 total cpu time :    65.2 secs   av.it.:  11.6
      thresh= 3.098E-05 alpha_mix =  0.700 |ddv_scf|^2 =  1.289E-08

      iter #   3 total cpu time :    66.2 secs   av.it.:  11.4
      thresh= 1.135E-05 alpha_mix =  0.700 |ddv_scf|^2 =  2.487E-10

      iter #   4 total cpu time :    67.1 secs   av.it.:  11.1
      thresh= 1.577E-06 alpha_mix =  0.700 |ddv_scf|^2 =  6.109E-13

     End of self-consistent calculation

     Convergence has been achieved 

     Number of q in the star =    6
     List of q in the star:
          1   0.000000000   0.500000000   0.000000000
          2   0.000000000  -0.500000000   0.000000000
          3   0.500000000   0.000000000   0.000000000
          4   0.000000000   0.000000000   0.500000000
          5   0.000000000   0.000000000  -0.500000000
          6  -0.500000000   0.000000000   0.000000000

     Diagonalizing the dynamical matrix

     q = (    0.000000000   0.500000000   0.000000000 ) 

 **************************************************************************
     freq (    1) =       3.769809 [THz] =     125.747288 [cm-1]
     freq (    2) =       3.769809 [THz] =     125.747288 [cm-1]
     freq (    3) =       7.057825 [THz] =     235.423708 [cm-1]
     freq (    4) =      13.818255 [THz] =     460.927375 [cm-1]
     freq (    5) =      13.818255 [THz] =     460.927375 [cm-1]
     freq (    6) =      14.453751 [THz] =     482.125227 [cm-1]
 **************************************************************************

     Mode symmetry, C_4v (4mm)  point group:

     freq (  1 -  2) =        125.7  [cm-1]   --> E    G_5 D_5       
     freq (  3 -  3) =        235.4  [cm-1]   --> A_1  G_1 D_1       
     freq (  4 -  5) =        460.9  [cm-1]   --> E    G_5 D_5       
     freq (  6 -  6) =        482.1  [cm-1]   --> B_2  G_4 D_2'      

     Calculation of q =    0.7500000  -0.2500000   0.7500000

   Info: using nr1, nr2, nr3 values from input

   Info: using nr1, nr2, nr3 values from input

     Parallelization info
     --------------------
     sticks:   dense  smooth     PW     G-vecs:    dense   smooth      PW
     Min         219     109     40                 4315     1545     362
     Max         220     110     41                 4316     1546     366
     Sum         877     439    163                17261     6183    1459



     bravais-lattice index     =            2
     lattice parameter (alat)  =      10.3340  a.u.
     unit-cell volume          =     275.8960 (a.u.)^3
     number of atoms/cell      =            2
     number of atomic types    =            1
     number of electrons       =         8.00
     number of Kohn-Sham states=            4
     kinetic-energy cutoff     =      30.0000  Ry
     charge density cutoff     =     240.0000  Ry
     Exchange-correlation      = SLA  PW   PBE  PBE ( 1  4  3  4 0 0)

     celldm(1)=  10.334000  celldm(2)=   0.000000  celldm(3)=   0.000000
     celldm(4)=   0.000000  celldm(5)=   0.000000  celldm(6)=   0.000000

     crystal axes: (cart. coord. in units of alat)
               a(1) = (  -0.500000   0.000000   0.500000 )  
               a(2) = (   0.000000   0.500000   0.500000 )  
               a(3) = (  -0.500000   0.500000   0.000000 )  

     reciprocal axes: (cart. coord. in units 2 pi/alat)
               b(1) = ( -1.000000 -1.000000  1.000000 )  
               b(2) = (  1.000000  1.000000  1.000000 )  
               b(3) = ( -1.000000  1.000000 -1.000000 )  


     PseudoPot. # 1 for Si read from file:
     /home/s1333534/quantum_espresso/qe-6.1/pseudo/si_pbe_v1.uspp.F.UPF.txt
     MD5 check sum: a056efeee980c13900f22a371efd63c1
     Pseudo is Ultrasoft + core correction, Zval =  4.0
     Generated by new atomic code, or converted to UPF format
     Using radial grid of  899 points,  6 beta functions with: 
                l(1) =   0
                l(2) =   0
                l(3) =   1
                l(4) =   1
                l(5) =   2
                l(6) =   2
     Q(r) pseudized with  8 coefficients,  rinner =    0.900   0.900   0.900
                                                       0.900   0.900

     atomic species   valence    mass     pseudopotential
        Si             4.00    28.08600     Si( 1.00)

     48 Sym. Ops., with inversion, found



   Cartesian axes

     site n.     atom                  positions (alat units)
         1           Si  tau(   1) = (   0.0000000   0.0000000   0.0000000  )
         2           Si  tau(   2) = (   0.2500000   0.2500000   0.2500000  )

     number of k points=   288

     Number of k-points >= 100: set verbosity='high' to print them.

     Dense  grid:    17261 G-vectors     FFT dimensions: (  40,  40,  40)

     Smooth grid:     6183 G-vectors     FFT dimensions: (  25,  25,  25)

     Estimated max dynamical RAM per process >       1.78MB

     Estimated total allocated dynamical RAM >       7.14MB

     The potential is recalculated from file :
     ./_ph0/silicon.10.334.save/charge-density.dat

     Starting wfc are    8 atomic wfcs

     Band Structure Calculation
     Davidson diagonalization with overlap

     ethr =  1.25E-10,  avg # of iterations = 12.1

     total cpu time spent up to now is        7.2 secs

     End of band structure calculation

     Number of k-points >= 100: set verbosity='high' to print the bands.

     highest occupied level (ev):     5.6950

     Writing output data file silicon.10.334.save

                                                                                

     bravais-lattice index     =            2
     lattice parameter (alat)  =      10.3340  a.u.
     unit-cell volume          =     275.8960 (a.u.)^3
     number of atoms/cell      =            2
     number of atomic types    =            1
     kinetic-energy cut-off    =      30.0000  Ry
     charge density cut-off    =     240.0000  Ry
     convergence threshold     =      1.0E-12
     beta                      =       0.7000
     number of iterations used =            4
     Exchange-correlation      = SLA  PW   PBE  PBE ( 1  4  3  4 0 0)


     celldm(1)=   10.33400  celldm(2)=    0.00000  celldm(3)=    0.00000
     celldm(4)=    0.00000  celldm(5)=    0.00000  celldm(6)=    0.00000

     crystal axes: (cart. coord. in units of alat)
               a(1) = ( -0.5000  0.0000  0.5000 )  
               a(2) = (  0.0000  0.5000  0.5000 )  
               a(3) = ( -0.5000  0.5000  0.0000 )  

     reciprocal axes: (cart. coord. in units 2 pi/alat)
               b(1) = ( -1.0000 -1.0000  1.0000 )  
               b(2) = (  1.0000  1.0000  1.0000 )  
               b(3) = ( -1.0000  1.0000 -1.0000 )  


     Atoms inside the unit cell: 

     Cartesian axes

     site n.  atom      mass           positions (alat units)
        1     Si  28.0860   tau(    1) = (    0.00000    0.00000    0.00000  )
        2     Si  28.0860   tau(    2) = (    0.25000    0.25000    0.25000  )

     Computing dynamical matrix for 
                    q = (   0.7500000  -0.2500000   0.7500000 )

      2 Sym.Ops. (no q -> -q+G )


     G cutoff =  649.2148  (   4315 G-vectors)     FFT grid: ( 40, 40, 40)
     G cutoff =  324.6074  (   1546 G-vectors)  smooth grid: ( 25, 25, 25)
     number of k points=   288

     PseudoPot. # 1 for Si read from file:
     /home/s1333534/quantum_espresso/qe-6.1/pseudo/si_pbe_v1.uspp.F.UPF.txt
     MD5 check sum: a056efeee980c13900f22a371efd63c1
     Pseudo is Ultrasoft + core correction, Zval =  4.0
     Generated by new atomic code, or converted to UPF format
     Using radial grid of  899 points,  6 beta functions with: 
                l(1) =   0
                l(2) =   0
                l(3) =   1
                l(4) =   1
                l(5) =   2
                l(6) =   2
     Q(r) pseudized with  8 coefficients,  rinner =    0.900   0.900   0.900
                                                       0.900   0.900

     Mode symmetry, C_s (m)     point group:


     Atomic displacements:
     There are   6 irreducible representations

     Representation     1      1 modes -A'  To be done

     Representation     2      1 modes -A'  To be done

     Representation     3      1 modes -A'  To be done

     Representation     4      1 modes -A'  To be done

     Representation     5      1 modes -A''  To be done

     Representation     6      1 modes -A''  To be done



     Alpha used in Ewald sum =   2.5000
     PHONON       :  0m54.16s CPU     1m12.41s WALL



     Representation #  1 mode #   1

     Self-consistent Calculation

      iter #   1 total cpu time :    73.3 secs   av.it.:   5.7
      thresh= 1.000E-02 alpha_mix =  0.700 |ddv_scf|^2 =  7.623E-06

      iter #   2 total cpu time :    74.7 secs   av.it.:  10.7
      thresh= 2.761E-04 alpha_mix =  0.700 |ddv_scf|^2 =  2.037E-05

      iter #   3 total cpu time :    75.9 secs   av.it.:   9.4
      thresh= 4.514E-04 alpha_mix =  0.700 |ddv_scf|^2 =  1.366E-07

      iter #   4 total cpu time :    77.3 secs   av.it.:  10.1
      thresh= 3.696E-05 alpha_mix =  0.700 |ddv_scf|^2 =  2.718E-09

      iter #   5 total cpu time :    78.7 secs   av.it.:  10.6
      thresh= 5.213E-06 alpha_mix =  0.700 |ddv_scf|^2 =  4.659E-10

      iter #   6 total cpu time :    80.0 secs   av.it.:  10.6
      thresh= 2.158E-06 alpha_mix =  0.700 |ddv_scf|^2 =  7.158E-12

      iter #   7 total cpu time :    81.5 secs   av.it.:  10.7
      thresh= 2.675E-07 alpha_mix =  0.700 |ddv_scf|^2 =  2.718E-13

     End of self-consistent calculation

     Convergence has been achieved 


     Representation #  2 mode #   2

     Self-consistent Calculation

      iter #   1 total cpu time :    82.5 secs   av.it.:   5.8
      thresh= 1.000E-02 alpha_mix =  0.700 |ddv_scf|^2 =  1.365E-05

      iter #   2 total cpu time :    83.9 secs   av.it.:  10.6
      thresh= 3.694E-04 alpha_mix =  0.700 |ddv_scf|^2 =  3.958E-05

      iter #   3 total cpu time :    85.1 secs   av.it.:   9.2
      thresh= 6.291E-04 alpha_mix =  0.700 |ddv_scf|^2 =  9.238E-08

      iter #   4 total cpu time :    86.5 secs   av.it.:  10.4
      thresh= 3.039E-05 alpha_mix =  0.700 |ddv_scf|^2 =  3.072E-09

      iter #   5 total cpu time :    88.0 secs   av.it.:  10.6
      thresh= 5.542E-06 alpha_mix =  0.700 |ddv_scf|^2 =  6.258E-10

      iter #   6 total cpu time :    89.4 secs   av.it.:  10.5
      thresh= 2.502E-06 alpha_mix =  0.700 |ddv_scf|^2 =  6.507E-12

      iter #   7 total cpu time :    90.7 secs   av.it.:  10.7
      thresh= 2.551E-07 alpha_mix =  0.700 |ddv_scf|^2 =  2.305E-13

     End of self-consistent calculation

     Convergence has been achieved 


     Representation #  3 mode #   3

     Self-consistent Calculation

      iter #   1 total cpu time :    91.7 secs   av.it.:   5.7
      thresh= 1.000E-02 alpha_mix =  0.700 |ddv_scf|^2 =  1.069E-05

      iter #   2 total cpu time :    93.1 secs   av.it.:  10.7
      thresh= 3.270E-04 alpha_mix =  0.700 |ddv_scf|^2 =  2.912E-05

      iter #   3 total cpu time :    94.4 secs   av.it.:   9.2
      thresh= 5.396E-04 alpha_mix =  0.700 |ddv_scf|^2 =  1.611E-07

      iter #   4 total cpu time :    95.8 secs   av.it.:  10.0
      thresh= 4.014E-05 alpha_mix =  0.700 |ddv_scf|^2 =  3.130E-09

      iter #   5 total cpu time :    97.1 secs   av.it.:  10.7
      thresh= 5.595E-06 alpha_mix =  0.700 |ddv_scf|^2 =  6.121E-10

      iter #   6 total cpu time :    98.5 secs   av.it.:  10.5
      thresh= 2.474E-06 alpha_mix =  0.700 |ddv_scf|^2 =  4.535E-12

      iter #   7 total cpu time :    99.9 secs   av.it.:  10.7
      thresh= 2.130E-07 alpha_mix =  0.700 |ddv_scf|^2 =  1.332E-13

     End of self-consistent calculation

     Convergence has been achieved 


     Representation #  4 mode #   4

     Self-consistent Calculation

      iter #   1 total cpu time :   101.0 secs   av.it.:   5.5
      thresh= 1.000E-02 alpha_mix =  0.700 |ddv_scf|^2 =  4.665E-06

      iter #   2 total cpu time :   102.4 secs   av.it.:  10.9
      thresh= 2.160E-04 alpha_mix =  0.700 |ddv_scf|^2 =  9.898E-06

      iter #   3 total cpu time :   103.7 secs   av.it.:   9.7
      thresh= 3.146E-04 alpha_mix =  0.700 |ddv_scf|^2 =  2.142E-07

      iter #   4 total cpu time :   105.0 secs   av.it.:  10.0
      thresh= 4.628E-05 alpha_mix =  0.700 |ddv_scf|^2 =  2.682E-09

      iter #   5 total cpu time :   106.7 secs   av.it.:  10.7
      thresh= 5.179E-06 alpha_mix =  0.700 |ddv_scf|^2 =  5.020E-10

      iter #   6 total cpu time :   108.1 secs   av.it.:  10.5
      thresh= 2.241E-06 alpha_mix =  0.700 |ddv_scf|^2 =  3.011E-12

      iter #   7 total cpu time :   109.5 secs   av.it.:  10.8
      thresh= 1.735E-07 alpha_mix =  0.700 |ddv_scf|^2 =  1.403E-13

     End of self-consistent calculation

     Convergence has been achieved 


     Representation #  5 mode #   5

     Self-consistent Calculation

      iter #   1 total cpu time :   110.7 secs   av.it.:   5.2
      thresh= 1.000E-02 alpha_mix =  0.700 |ddv_scf|^2 =  4.839E-07

      iter #   2 total cpu time :   112.0 secs   av.it.:  10.4
      thresh= 6.956E-05 alpha_mix =  0.700 |ddv_scf|^2 =  7.893E-08

      iter #   3 total cpu time :   113.4 secs   av.it.:  10.2
      thresh= 2.809E-05 alpha_mix =  0.700 |ddv_scf|^2 =  1.053E-09

      iter #   4 total cpu time :   114.7 secs   av.it.:   9.8
      thresh= 3.244E-06 alpha_mix =  0.700 |ddv_scf|^2 =  2.462E-12

      iter #   5 total cpu time :   116.0 secs   av.it.:  10.2
      thresh= 1.569E-07 alpha_mix =  0.700 |ddv_scf|^2 =  6.958E-14

     End of self-consistent calculation

     Convergence has been achieved 


     Representation #  6 mode #   6

     Self-consistent Calculation

      iter #   1 total cpu time :   117.0 secs   av.it.:   5.2
      thresh= 1.000E-02 alpha_mix =  0.700 |ddv_scf|^2 =  4.839E-07

      iter #   2 total cpu time :   118.4 secs   av.it.:  10.4
[...]
        k(   59) = (  -0.8750000   0.1250000  -0.1250000), wk =   0.0625000
        k(   60) = (  -1.3750000  -0.8750000  -0.1250000), wk =   0.0000000
        k(   61) = (  -1.1250000   0.3750000  -0.3750000), wk =   0.0625000
        k(   62) = (  -1.6250000  -0.6250000  -0.3750000), wk =   0.0000000
        k(   63) = (  -0.3750000   0.3750000   1.1250000), wk =   0.0625000
        k(   64) = (  -0.8750000  -0.6250000   1.1250000), wk =   0.0000000

     Dense  grid:    17261 G-vectors     FFT dimensions: (  40,  40,  40)

     Smooth grid:     6183 G-vectors     FFT dimensions: (  25,  25,  25)

     Estimated max dynamical RAM per process >       1.78MB

     Estimated total allocated dynamical RAM >       7.14MB

     The potential is recalculated from file :
     ./_ph0/silicon.10.334.save/charge-density.dat

     Starting wfc are    8 atomic wfcs

     Band Structure Calculation
     Davidson diagonalization with overlap

     ethr =  1.25E-10,  avg # of iterations = 12.1

     total cpu time spent up to now is       11.0 secs

     End of band structure calculation

          k =-0.1250 0.1250 0.1250 (   770 PWs)   bands (ev):

    -5.6384   4.3857   5.6950   5.6950

          k =-0.6250-0.8750 0.1250 (   755 PWs)   bands (ev):

    -2.4416  -0.9008   2.0088   3.0846

          k =-0.3750 0.3750-0.1250 (   773 PWs)   bands (ev):

    -4.6124   1.3943   3.7102   5.2150

          k =-0.8750-0.6250-0.1250 (   755 PWs)   bands (ev):

    -2.4416  -0.9008   2.0088   3.0846

          k = 0.3750-0.3750 0.6250 (   763 PWs)   bands (ev):

    -3.4737  -0.6823   3.7308   4.4442

          k =-0.1250-1.3750 0.6250 (   767 PWs)   bands (ev):

    -2.9783  -0.5981   2.0668   4.1275

          k = 0.1250-0.1250 0.3750 (   768 PWs)   bands (ev):

    -5.1108   2.7700   4.6878   4.7515

          k =-0.3750-1.1250 0.3750 (   767 PWs)   bands (ev):

    -2.9783  -0.5981   2.0668   4.1275

          k =-0.1250 0.6250 0.1250 (   766 PWs)   bands (ev):

    -4.0801   1.0599   3.3620   3.8144

          k =-0.6250-0.3750 0.1250 (   768 PWs)   bands (ev):

    -3.6649   0.1876   2.7205   4.0888

          k = 0.6250-0.1250 0.8750 (   755 PWs)   bands (ev):

    -2.4416  -0.9008   2.0088   3.0846

          k = 0.1250-1.1250 0.8750 (   762 PWs)   bands (ev):

    -2.6091  -0.8036   2.6182   3.3478

          k = 0.3750 0.1250 0.6250 (   768 PWs)   bands (ev):

    -3.6649   0.1876   2.7205   4.0888

          k =-0.1250-0.8750 0.6250 (   755 PWs)   bands (ev):

    -2.4416  -0.9008   2.0088   3.0846

          k =-0.1250-0.8750 0.1250 (   762 PWs)   bands (ev):

    -2.6091  -0.8036   2.6182   3.3478

          k =-0.6250-1.8750 0.1250 (   766 PWs)   bands (ev):

    -4.0801   1.0599   3.3620   3.8144

          k =-0.3750 0.3750 0.3750 (   763 PWs)   bands (ev):

    -4.1798   0.1052   4.9083   4.9083

          k =-0.8750-0.6250 0.3750 (   768 PWs)   bands (ev):

    -3.6649   0.1876   2.7205   4.0888

          k = 0.3750-0.3750 1.1250 (   767 PWs)   bands (ev):

    -2.9783  -0.5981   2.0668   4.1275

          k =-0.1250-1.3750 1.1250 (   755 PWs)   bands (ev):

    -2.4416  -0.9008   2.0088   3.0846

          k = 0.1250-0.3750 0.3750 (   773 PWs)   bands (ev):

    -4.6124   1.3943   3.7102   5.2150

          k =-0.3750-1.3750 0.3750 (   763 PWs)   bands (ev):

    -3.4737  -0.6823   3.7308   4.4442

          k = 0.3750-0.3750-0.1250 (   773 PWs)   bands (ev):

    -4.6124   1.3943   3.7102   5.2150

          k =-0.1250-1.3750-0.1250 (   766 PWs)   bands (ev):

    -4.0801   1.0599   3.3620   3.8144

          k =-0.6250 0.3750-0.3750 (   763 PWs)   bands (ev):

    -3.4737  -0.6823   3.7308   4.4442

          k =-1.1250-0.6250-0.3750 (   768 PWs)   bands (ev):

    -3.6649   0.1876   2.7205   4.0888

          k =-0.3750 0.3750 0.6250 (   763 PWs)   bands (ev):

    -3.4737  -0.6823   3.7308   4.4442

          k =-0.8750-0.6250 0.6250 (   773 PWs)   bands (ev):

    -4.6124   1.3943   3.7102   5.2150

          k =-0.3750 0.1250-0.1250 (   768 PWs)   bands (ev):

    -5.1108   2.7700   4.6878   4.7515

          k =-0.8750-0.8750-0.1250 (   762 PWs)   bands (ev):

    -2.6091  -0.8036   2.6182   3.3478

          k =-0.1250 0.1250 0.3750 (   768 PWs)   bands (ev):

    -5.1108   2.7700   4.6878   4.7515

          k =-0.6250-0.8750 0.3750 (   768 PWs)   bands (ev):

    -3.6649   0.1876   2.7205   4.0888

          k = 0.1250 0.6250-0.1250 (   766 PWs)   bands (ev):

    -4.0801   1.0599   3.3620   3.8144

          k =-0.3750-0.3750-0.1250 (   773 PWs)   bands (ev):

    -4.6124   1.3943   3.7102   5.2150

          k = 0.6250 0.1250-0.1250 (   766 PWs)   bands (ev):

    -4.0801   1.0599   3.3620   3.8144

          k = 0.1250-0.8750-0.1250 (   762 PWs)   bands (ev):

    -2.6091  -0.8036   2.6182   3.3478

          k =-0.8750 0.1250-0.6250 (   755 PWs)   bands (ev):

    -2.4416  -0.9008   2.0088   3.0846

          k =-1.3750-0.8750-0.6250 (   773 PWs)   bands (ev):

    -4.6124   1.3943   3.7102   5.2150

          k = 0.8750-0.1250 0.6250 (   755 PWs)   bands (ev):

    -2.4416  -0.9008   2.0088   3.0846

          k = 0.3750-1.1250 0.6250 (   768 PWs)   bands (ev):

    -3.6649   0.1876   2.7205   4.0888

          k =-0.6250 0.1250 0.8750 (   755 PWs)   bands (ev):

    -2.4416  -0.9008   2.0088   3.0846

          k =-1.1250-0.8750 0.8750 (   770 PWs)   bands (ev):

    -5.6384   4.3857   5.6950   5.6950

          k =-0.1250 0.8750 0.6250 (   755 PWs)   bands (ev):

    -2.4416  -0.9008   2.0088   3.0846

          k =-0.6250-0.1250 0.6250 (   767 PWs)   bands (ev):

    -2.9783  -0.5981   2.0668   4.1275

          k = 0.1250 0.8750-0.6250 (   755 PWs)   bands (ev):

    -2.4416  -0.9008   2.0088   3.0846

          k =-0.3750-0.1250-0.6250 (   768 PWs)   bands (ev):

    -3.6649   0.1876   2.7205   4.0888

          k =-0.6250-0.1250-0.3750 (   768 PWs)   bands (ev):

    -3.6649   0.1876   2.7205   4.0888

          k =-1.1250-1.1250-0.3750 (   766 PWs)   bands (ev):

    -4.0801   1.0599   3.3620   3.8144

          k = 0.6250 0.1250 0.3750 (   768 PWs)   bands (ev):

    -3.6649   0.1876   2.7205   4.0888

          k = 0.1250-0.8750 0.3750 (   755 PWs)   bands (ev):

    -2.4416  -0.9008   2.0088   3.0846

          k =-0.3750-0.1250 0.6250 (   768 PWs)   bands (ev):

    -3.6649   0.1876   2.7205   4.0888

          k =-0.8750-1.1250 0.6250 (   768 PWs)   bands (ev):

    -5.1108   2.7700   4.6878   4.7515

          k = 0.1250 0.6250 0.3750 (   768 PWs)   bands (ev):

    -3.6649   0.1876   2.7205   4.0888

          k =-0.3750-0.3750 0.3750 (   763 PWs)   bands (ev):

    -4.1798   0.1052   4.9083   4.9083

          k =-0.1250 0.6250-0.3750 (   768 PWs)   bands (ev):

    -3.6649   0.1876   2.7205   4.0888

          k =-0.6250-0.3750-0.3750 (   763 PWs)   bands (ev):

    -3.4737  -0.6823   3.7308   4.4442

          k = 0.1250-0.8750-0.1250 (   762 PWs)   bands (ev):

    -2.6091  -0.8036   2.6182   3.3478

          k =-0.3750-1.8750-0.1250 (   768 PWs)   bands (ev):

    -5.1108   2.7700   4.6878   4.7515

          k =-0.8750 0.1250-0.1250 (   762 PWs)   bands (ev):

    -2.6091  -0.8036   2.6182   3.3478

          k =-1.3750-0.8750-0.1250 (   755 PWs)   bands (ev):

    -2.4416  -0.9008   2.0088   3.0846

          k =-1.1250 0.3750-0.3750 (   767 PWs)   bands (ev):

    -2.9783  -0.5981   2.0668   4.1275

          k =-1.6250-0.6250-0.3750 (   763 PWs)   bands (ev):

    -3.4737  -0.6823   3.7308   4.4442

          k =-0.3750 0.3750 1.1250 (   767 PWs)   bands (ev):

    -2.9783  -0.5981   2.0668   4.1275

          k =-0.8750-0.6250 1.1250 (   768 PWs)   bands (ev):

    -5.1108   2.7700   4.6878   4.7515

     highest occupied level (ev):     5.6950

     Writing output data file silicon.10.334.save

                                                                                

     bravais-lattice index     =            2
     lattice parameter (alat)  =      10.3340  a.u.
     unit-cell volume          =     275.8960 (a.u.)^3
     number of atoms/cell      =            2
     number of atomic types    =            1
     kinetic-energy cut-off    =      30.0000  Ry
     charge density cut-off    =     240.0000  Ry
     convergence threshold     =      1.0E-12
     beta                      =       0.7000
     number of iterations used =            4
     Exchange-correlation      = SLA  PW   PBE  PBE ( 1  4  3  4 0 0)


     celldm(1)=   10.33400  celldm(2)=    0.00000  celldm(3)=    0.00000
     celldm(4)=    0.00000  celldm(5)=    0.00000  celldm(6)=    0.00000

     crystal axes: (cart. coord. in units of alat)
               a(1) = ( -0.5000  0.0000  0.5000 )  
               a(2) = (  0.0000  0.5000  0.5000 )  
               a(3) = ( -0.5000  0.5000  0.0000 )  

     reciprocal axes: (cart. coord. in units 2 pi/alat)
               b(1) = ( -1.0000 -1.0000  1.0000 )  
               b(2) = (  1.0000  1.0000  1.0000 )  
               b(3) = ( -1.0000  1.0000 -1.0000 )  


     Atoms inside the unit cell: 

     Cartesian axes

     site n.  atom      mass           positions (alat units)
        1     Si  28.0860   tau(    1) = (    0.00000    0.00000    0.00000  )
        2     Si  28.0860   tau(    2) = (    0.25000    0.25000    0.25000  )

     Computing dynamical matrix for 
                    q = (  -0.5000000  -1.0000000   0.0000000 )

      8 Sym.Ops. (no q -> -q+G )


     G cutoff =  649.2148  (   4316 G-vectors)     FFT grid: ( 40, 40, 40)
     G cutoff =  324.6074  (   1546 G-vectors)  smooth grid: ( 25, 25, 25)
     number of k points=    64

     PseudoPot. # 1 for Si read from file:
     /home/s1333534/quantum_espresso/qe-6.1/pseudo/si_pbe_v1.uspp.F.UPF.txt
     MD5 check sum: a056efeee980c13900f22a371efd63c1
     Pseudo is Ultrasoft + core correction, Zval =  4.0
     Generated by new atomic code, or converted to UPF format
     Using radial grid of  899 points,  6 beta functions with: 
                l(1) =   0
                l(2) =   0
                l(3) =   1
                l(4) =   1
                l(5) =   2
                l(6) =   2
     Q(r) pseudized with  8 coefficients,  rinner =    0.900   0.900   0.900
                                                       0.900   0.900


     Atomic displacements:
     There are   3 irreducible representations

     Representation     1      2 modes -  To be done

     Representation     2      2 modes -  To be done

     Representation     3      2 modes -  To be done



     Alpha used in Ewald sum =   2.5000
     PHONON       :  2m 7.43s CPU     2m41.73s WALL



     Representation #  1 modes #   1  2

     Self-consistent Calculation

      iter #   1 total cpu time :   162.4 secs   av.it.:   5.7
      thresh= 1.000E-02 alpha_mix =  0.700 |ddv_scf|^2 =  7.882E-07

      iter #   2 total cpu time :   163.2 secs   av.it.:  11.8
      thresh= 8.878E-05 alpha_mix =  0.700 |ddv_scf|^2 =  4.461E-07

      iter #   3 total cpu time :   164.1 secs   av.it.:  11.3
      thresh= 6.679E-05 alpha_mix =  0.700 |ddv_scf|^2 =  4.288E-10

      iter #   4 total cpu time :   164.9 secs   av.it.:  11.1
      thresh= 2.071E-06 alpha_mix =  0.700 |ddv_scf|^2 =  1.931E-12

      iter #   5 total cpu time :   165.9 secs   av.it.:  11.3
      thresh= 1.390E-07 alpha_mix =  0.700 |ddv_scf|^2 =  5.057E-14

     End of self-consistent calculation

     Convergence has been achieved 


     Representation #  2 modes #   3  4

     Self-consistent Calculation

      iter #   1 total cpu time :   166.7 secs   av.it.:   5.7
      thresh= 1.000E-02 alpha_mix =  0.700 |ddv_scf|^2 =  1.223E-06

      iter #   2 total cpu time :   167.7 secs   av.it.:  11.8
      thresh= 1.106E-04 alpha_mix =  0.700 |ddv_scf|^2 =  1.660E-06

      iter #   3 total cpu time :   168.5 secs   av.it.:  11.0
      thresh= 1.288E-04 alpha_mix =  0.700 |ddv_scf|^2 =  5.092E-10

      iter #   4 total cpu time :   169.4 secs   av.it.:  11.0
      thresh= 2.257E-06 alpha_mix =  0.700 |ddv_scf|^2 =  7.951E-12

      iter #   5 total cpu time :   170.2 secs   av.it.:  11.3
      thresh= 2.820E-07 alpha_mix =  0.700 |ddv_scf|^2 =  1.312E-13

     End of self-consistent calculation

     Convergence has been achieved 


     Representation #  3 modes #   5  6

     Self-consistent Calculation

      iter #   1 total cpu time :   170.9 secs   av.it.:   5.3
      thresh= 1.000E-02 alpha_mix =  0.700 |ddv_scf|^2 =  3.202E-07

      iter #   2 total cpu time :   171.7 secs   av.it.:  11.8
      thresh= 5.659E-05 alpha_mix =  0.700 |ddv_scf|^2 =  1.870E-07

      iter #   3 total cpu time :   172.7 secs   av.it.:  11.2
      thresh= 4.325E-05 alpha_mix =  0.700 |ddv_scf|^2 =  3.724E-10

      iter #   4 total cpu time :   173.6 secs   av.it.:  11.1
      thresh= 1.930E-06 alpha_mix =  0.700 |ddv_scf|^2 =  4.402E-12

      iter #   5 total cpu time :   174.4 secs   av.it.:  11.2
      thresh= 2.098E-07 alpha_mix =  0.700 |ddv_scf|^2 =  6.060E-14

     End of self-consistent calculation

     Convergence has been achieved 

     Number of q in the star =    6
     List of q in the star:
          1  -0.500000000  -1.000000000   0.000000000
          2   0.000000000   1.000000000   0.500000000
          3   0.000000000  -1.000000000  -0.500000000
          4   0.500000000   1.000000000   0.000000000
          5  -1.000000000  -0.500000000   0.000000000
          6   0.000000000  -0.500000000  -1.000000000

     Diagonalizing the dynamical matrix

     q = (   -0.500000000  -1.000000000   0.000000000 ) 

 **************************************************************************
     freq (    1) =       6.019897 [THz] =     200.802145 [cm-1]
     freq (    2) =       6.019897 [THz] =     200.802145 [cm-1]
     freq (    3) =      10.322481 [THz] =     344.320895 [cm-1]
     freq (    4) =      10.322481 [THz] =     344.320895 [cm-1]
     freq (    5) =      13.553076 [THz] =     452.081962 [cm-1]
     freq (    6) =      13.553076 [THz] =     452.081962 [cm-1]
 **************************************************************************

     init_run     :      1.27s CPU      1.31s WALL (       7 calls)
     electrons    :      7.28s CPU      7.96s WALL (       7 calls)

     Called by init_run:
     wfcinit      :      0.00s CPU      0.02s WALL (       7 calls)
     potinit      :      0.10s CPU      0.12s WALL (       7 calls)

     Called by electrons:
     c_bands      :      7.28s CPU      7.95s WALL (       7 calls)
     v_of_rho     :      0.09s CPU      0.09s WALL (       8 calls)
     newd         :      0.12s CPU      0.12s WALL (       8 calls)

     Called by c_bands:
     init_us_2    :      1.62s CPU      1.56s WALL (   15896 calls)
     cegterg      :      6.10s CPU      6.65s WALL (     796 calls)

     Called by sum_band:

     Called by *egterg:
     h_psi        :     70.87s CPU     76.08s WALL (  154674 calls)
     s_psi        :      5.77s CPU      7.00s WALL (  311606 calls)
     g_psi        :      0.05s CPU      0.07s WALL (    9666 calls)
     cdiaghg      :      0.56s CPU      0.57s WALL (   10462 calls)

     Called by h_psi:
     h_psi:pot    :     70.43s CPU     75.56s WALL (  154674 calls)
     h_psi:calbec :      3.47s CPU      4.00s WALL (  154674 calls)
     vloc_psi     :     62.32s CPU     67.38s WALL (  154674 calls)
     add_vuspsi   :      4.30s CPU      3.70s WALL (  154674 calls)

     General routines
     calbec       :      8.12s CPU      8.51s WALL (  345914 calls)
     fft          :      1.84s CPU      1.90s WALL (    5233 calls)
     ffts         :      0.21s CPU      0.22s WALL (    3316 calls)
     fftw         :     63.87s CPU     68.00s WALL ( 1384588 calls)
     interpolate  :      0.24s CPU      0.27s WALL (     568 calls)
     davcio       :      0.33s CPU      1.19s WALL (   69130 calls)

     Parallel routines
     fft_scatter  :     15.07s CPU     19.69s WALL ( 1393137 calls)

     PHONON       :  2m17.03s CPU     2m54.96s WALL

     INITIALIZATION: 
     phq_setup    :      0.30s CPU      0.50s WALL (       8 calls)
     phq_init     :      6.86s CPU      7.09s WALL (       8 calls)

     phq_init     :      6.86s CPU      7.09s WALL (       8 calls)
     set_drhoc    :      1.84s CPU      1.84s WALL (      24 calls)
     init_vloc    :      0.03s CPU      0.03s WALL (       8 calls)
     init_us_1    :      0.97s CPU      0.98s WALL (       8 calls)
     newd         :      0.12s CPU      0.12s WALL (       8 calls)
     dvanqq       :      1.17s CPU      1.18s WALL (       8 calls)
     drho         :      2.62s CPU      2.70s WALL (       8 calls)

     DYNAMICAL MATRIX:
     dynmat0      :      1.75s CPU      1.88s WALL (       8 calls)
     phqscf       :    116.07s CPU    147.55s WALL (       8 calls)
     dynmatrix    :      0.01s CPU      0.21s WALL (       8 calls)

     phqscf       :    116.07s CPU    147.55s WALL (       8 calls)
     solve_linter :    115.21s CPU    144.70s WALL (      32 calls)
     drhodv       :      0.59s CPU      0.62s WALL (      32 calls)

     dynmat0      :      1.75s CPU      1.88s WALL (       8 calls)
     dynmat_us    :      0.38s CPU      0.39s WALL (       8 calls)
     d2ionq       :      0.04s CPU      0.04s WALL (       8 calls)
     dynmatcc     :      1.32s CPU      1.32s WALL (       8 calls)

     dynmat_us    :      0.38s CPU      0.39s WALL (       8 calls)
     addusdynmat  :      0.00s CPU      0.00s WALL (       8 calls)

     phqscf       :    116.07s CPU    147.55s WALL (       8 calls)
     solve_linter :    115.21s CPU    144.70s WALL (      32 calls)

     solve_linter :    115.21s CPU    144.70s WALL (      32 calls)
     dvqpsi_us    :      2.12s CPU      2.27s WALL (    2508 calls)
     ortho        :      0.90s CPU      1.01s WALL (   13486 calls)
     cgsolve      :     78.43s CPU     85.31s WALL (   13486 calls)
     incdrhoscf   :      6.18s CPU      6.73s WALL (   13486 calls)
     addusddens   :      7.05s CPU      7.09s WALL (     200 calls)
     vpsifft      :      4.46s CPU      4.90s WALL (   10858 calls)
     dv_of_drho   :      1.71s CPU      1.75s WALL (     254 calls)
     mix_pot      :      0.37s CPU     12.28s WALL (     173 calls)
     psymdvscf    :      5.78s CPU      5.84s WALL (     168 calls)
     newdq        :      7.67s CPU      7.70s WALL (     173 calls)
     adddvscf     :      0.45s CPU      0.43s WALL (   10978 calls)
     drhodvus     :      0.01s CPU      0.02s WALL (      32 calls)

     dvqpsi_us    :      2.12s CPU      2.27s WALL (    2508 calls)
     dvqpsi_us_on :      0.91s CPU      0.94s WALL (    2508 calls)

     cgsolve      :     78.43s CPU     85.31s WALL (   13486 calls)
     ch_psi       :     77.29s CPU     83.56s WALL (  143416 calls)

     ch_psi       :     77.29s CPU     83.56s WALL (  143416 calls)
     h_psi        :     70.87s CPU     76.08s WALL (  154674 calls)
     last         :      9.01s CPU      9.22s WALL (  143416 calls)

     h_psi        :     70.87s CPU     76.08s WALL (  154674 calls)
     add_vuspsi   :      4.30s CPU      3.70s WALL (  154674 calls)

     incdrhoscf   :      6.18s CPU      6.73s WALL (   13486 calls)
     addusdbec    :      0.48s CPU      0.52s WALL (   15934 calls)

     drhodvus     :      0.01s CPU      0.02s WALL (      32 calls)

      General routines
     calbec       :      8.12s CPU      8.51s WALL (  345914 calls)
     fft          :      1.84s CPU      1.90s WALL (    5233 calls)
     ffts         :      0.21s CPU      0.22s WALL (    3316 calls)
     fftw         :     63.87s CPU     68.00s WALL ( 1384588 calls)
     davcio       :      0.33s CPU      1.19s WALL (   69130 calls)
     write_rec    :      0.23s CPU     11.46s WALL (     205 calls)


     PHONON       :  2m17.03s CPU     2m54.96s WALL


   This run was terminated on:  15:43:31  10Nov2017            

=------------------------------------------------------------------------------=
   JOB DONE.
=------------------------------------------------------------------------------=
