
     Program PHONON v.6.1 (svn rev. 13369) starts on  9Nov2017 at 16: 3:10 

     This program is part of the open-source Quantum ESPRESSO suite
     for quantum simulation of materials; please cite
         "P. Giannozzi et al., J. Phys.:Condens. Matter 21 395502 (2009);
          URL http://www.quantum-espresso.org", 
     in publications or presentations arising from this work. More details at
     http://www.quantum-espresso.org/quote

     Parallel version (MPI), running on     4 processors
     R & G space division:  proc/nbgrp/npool/nimage =       4

     Reading data from directory:
     ./silicon.10.3407.save

   Info: using nr1, nr2, nr3 values from input

   Info: using nr1, nr2, nr3 values from input

     IMPORTANT: XC functional enforced from input :
     Exchange-correlation      = SLA  PW   PBE  PBE ( 1  4  3  4 0 0)
     Any further DFT definition will be discarded
     Please, verify this is what you really want


     Parallelization info
     --------------------
     sticks:   dense  smooth     PW     G-vecs:    dense   smooth      PW
     Min          64      64     22                  709      709     140
     Max          67      67     23                  710      710     141
     Sum         265     265     91                 2837     2837     561


     Check: negative/imaginary core charge=   -0.000006    0.000000


     Dynamical matrices for ( 4, 4, 4)  uniform grid of q-points
     (   8q-points):
       N         xq(1)         xq(2)         xq(3) 
       1   0.000000000   0.000000000   0.000000000
       2  -0.250000000   0.250000000  -0.250000000
       3   0.500000000  -0.500000000   0.500000000
       4   0.000000000   0.500000000   0.000000000
       5   0.750000000  -0.250000000   0.750000000
       6   0.500000000   0.000000000   0.500000000
       7   0.000000000  -1.000000000   0.000000000
       8  -0.500000000  -1.000000000   0.000000000

     Calculation of q =    0.0000000   0.0000000   0.0000000

                                                                                

     bravais-lattice index     =            2
     lattice parameter (alat)  =      10.3407  a.u.
     unit-cell volume          =     276.4330 (a.u.)^3
     number of atoms/cell      =            2
     number of atomic types    =            1
     kinetic-energy cut-off    =      18.0000  Ry
     charge density cut-off    =      72.0000  Ry
     convergence threshold     =      1.0E-12
     beta                      =       0.7000
     number of iterations used =            4
     Exchange-correlation      = SLA  PW   PBE  PBE ( 1  4  3  4 0 0)


     celldm(1)=   10.34070  celldm(2)=    0.00000  celldm(3)=    0.00000
     celldm(4)=    0.00000  celldm(5)=    0.00000  celldm(6)=    0.00000

     crystal axes: (cart. coord. in units of alat)
               a(1) = ( -0.5000  0.0000  0.5000 )  
               a(2) = (  0.0000  0.5000  0.5000 )  
               a(3) = ( -0.5000  0.5000  0.0000 )  

     reciprocal axes: (cart. coord. in units 2 pi/alat)
               b(1) = ( -1.0000 -1.0000  1.0000 )  
               b(2) = (  1.0000  1.0000  1.0000 )  
               b(3) = ( -1.0000  1.0000 -1.0000 )  


     Atoms inside the unit cell: 

     Cartesian axes

     site n.  atom      mass           positions (alat units)
        1     Si  28.0860   tau(    1) = (    0.00000    0.00000    0.00000  )
        2     Si  28.0860   tau(    2) = (    0.25000    0.25000    0.25000  )

     Computing dynamical matrix for 
                    q = (   0.0000000   0.0000000   0.0000000 )

     49 Sym.Ops. (with q -> -q+G )


     G cutoff =  195.0171  (    710 G-vectors)     FFT grid: ( 20, 20, 20)
     number of k points=    10

     PseudoPot. # 1 for Si read from file:
     /home/max/quantum_espresso/qe-6.1/pseudo/si_pbe_v1.uspp.F.UPF.txt
     MD5 check sum: a056efeee980c13900f22a371efd63c1
     Pseudo is Ultrasoft + core correction, Zval =  4.0
     Generated by new atomic code, or converted to UPF format
     Using radial grid of  899 points,  6 beta functions with: 
                l(1) =   0
                l(2) =   0
                l(3) =   1
                l(4) =   1
                l(5) =   2
                l(6) =   2
     Q(r) pseudized with  8 coefficients,  rinner =    0.900   0.900   0.900
                                                       0.900   0.900

     Mode symmetry, O_h (m-3m)  point group:


     Electric field:
     Dielectric constant
     Born effective charges in two ways 


     Atomic displacements:
     There are   2 irreducible representations

     Representation     1      3 modes -T_2g G_25' G_5+  To be done

     Representation     2      3 modes -T_1u G_15  G_4-  To be done



     Alpha used in Ewald sum =   0.7000
     PHONON       :     0.52s CPU         0.56s WALL


     Electric Fields Calculation

      iter #   1 total cpu time :     0.9 secs   av.it.:   5.6
      thresh= 1.000E-02 alpha_mix =  0.700 |ddv_scf|^2 =  9.342E-07

      iter #   2 total cpu time :     1.1 secs   av.it.:   9.9
      thresh= 9.666E-05 alpha_mix =  0.700 |ddv_scf|^2 =  5.948E-08

      iter #   3 total cpu time :     1.3 secs   av.it.:   9.8
      thresh= 2.439E-05 alpha_mix =  0.700 |ddv_scf|^2 =  4.675E-09

      iter #   4 total cpu time :     1.5 secs   av.it.:   8.9
      thresh= 6.837E-06 alpha_mix =  0.700 |ddv_scf|^2 =  2.807E-11

      iter #   5 total cpu time :     1.6 secs   av.it.:   9.1
      thresh= 5.298E-07 alpha_mix =  0.700 |ddv_scf|^2 =  1.458E-14

     End of electric fields calculation

          Dielectric constant in cartesian axis 

          (      13.883659747      -0.000000000       0.000000000 )
          (      -0.000000000      13.883659747      -0.000000000 )
          (      -0.000000000      -0.000000000      13.883659747 )

          Effective charges (d Force / dE) in cartesian axis

           atom      1   Si 
      Ex  (       -0.03565       -0.00000        0.00000 )
      Ey  (       -0.00000       -0.03565       -0.00000 )
      Ez  (       -0.00000       -0.00000       -0.03565 )
           atom      2   Si 
      Ex  (       -0.03565       -0.00000       -0.00000 )
      Ey  (       -0.00000       -0.03565        0.00000 )
      Ez  (       -0.00000        0.00000       -0.03565 )


     Representation #  1 modes #   1  2  3

     Self-consistent Calculation

      iter #   1 total cpu time :     2.0 secs   av.it.:   5.0
      thresh= 1.000E-02 alpha_mix =  0.700 |ddv_scf|^2 =  2.232E-07

      iter #   2 total cpu time :     2.2 secs   av.it.:   9.9
      thresh= 4.725E-05 alpha_mix =  0.700 |ddv_scf|^2 =  1.381E-08

      iter #   3 total cpu time :     2.4 secs   av.it.:   9.3
      thresh= 1.175E-05 alpha_mix =  0.700 |ddv_scf|^2 =  8.578E-10

      iter #   4 total cpu time :     2.7 secs   av.it.:   9.0
      thresh= 2.929E-06 alpha_mix =  0.700 |ddv_scf|^2 =  1.896E-12

      iter #   5 total cpu time :     2.9 secs   av.it.:   9.5
      thresh= 1.377E-07 alpha_mix =  0.700 |ddv_scf|^2 =  1.333E-14

     End of self-consistent calculation

     Convergence has been achieved 


     Representation #  2 modes #   4  5  6

     Self-consistent Calculation

      iter #   1 total cpu time :     3.1 secs   av.it.:   5.0
      thresh= 1.000E-02 alpha_mix =  0.700 |ddv_scf|^2 =  1.848E-07

      iter #   2 total cpu time :     3.3 secs   av.it.:   9.6
      thresh= 4.299E-05 alpha_mix =  0.700 |ddv_scf|^2 =  1.497E-08

      iter #   3 total cpu time :     3.4 secs   av.it.:   9.3
      thresh= 1.224E-05 alpha_mix =  0.700 |ddv_scf|^2 =  9.110E-10

      iter #   4 total cpu time :     3.6 secs   av.it.:   9.5
      thresh= 3.018E-06 alpha_mix =  0.700 |ddv_scf|^2 =  5.312E-12

      iter #   5 total cpu time :     3.8 secs   av.it.:   9.0
      thresh= 2.305E-07 alpha_mix =  0.700 |ddv_scf|^2 =  4.653E-15

     End of self-consistent calculation

     Convergence has been achieved 

     Number of q in the star =    1
     List of q in the star:
          1   0.000000000   0.000000000   0.000000000

          Dielectric constant in cartesian axis 

          (      13.883659747      -0.000000000       0.000000000 )
          (      -0.000000000      13.883659747      -0.000000000 )
          (      -0.000000000      -0.000000000      13.883659747 )

          Effective charges (d Force / dE) in cartesian axis

           atom      1   Si 
      Ex  (       -0.03565       -0.00000        0.00000 )
      Ey  (       -0.00000       -0.03565       -0.00000 )
      Ez  (       -0.00000       -0.00000       -0.03565 )
           atom      2   Si 
      Ex  (       -0.03565       -0.00000       -0.00000 )
      Ey  (       -0.00000       -0.03565        0.00000 )
      Ez  (       -0.00000        0.00000       -0.03565 )

          Effective charges (d P / du) in cartesian axis 

           atom      1   Si 
      Px  (       -0.07507       -0.00000        0.00000 )
      Py  (       -0.00000       -0.07507        0.00000 )
      Pz  (        0.00000        0.00000       -0.07507 )
           atom      2   Si 
      Px  (       -0.07507       -0.00000        0.00000 )
      Py  (       -0.00000       -0.07507       -0.00000 )
      Pz  (        0.00000        0.00000       -0.07507 )

     Diagonalizing the dynamical matrix

     q = (    0.000000000   0.000000000   0.000000000 ) 

 **************************************************************************
     freq (    1) =       1.896137 [THz] =      63.248339 [cm-1]
     freq (    2) =       1.896137 [THz] =      63.248339 [cm-1]
     freq (    3) =       1.896137 [THz] =      63.248339 [cm-1]
     freq (    4) =      15.355445 [THz] =     512.202506 [cm-1]
     freq (    5) =      15.355445 [THz] =     512.202506 [cm-1]
     freq (    6) =      15.355445 [THz] =     512.202506 [cm-1]
 **************************************************************************

     Mode symmetry, O_h (m-3m)  point group:

     freq (  1 -  3) =         63.2  [cm-1]   --> T_1u G_15  G_4- I  
     freq (  4 -  6) =        512.2  [cm-1]   --> T_2g G_25' G_5+ R  

     Calculation of q =   -0.2500000   0.2500000  -0.2500000

   Info: using nr1, nr2, nr3 values from input

   Info: using nr1, nr2, nr3 values from input

     Parallelization info
     --------------------
     sticks:   dense  smooth     PW     G-vecs:    dense   smooth      PW
     Min          64      64     24                  709      709     161
     Max          67      67     25                  710      710     162
     Sum         265     265     97                 2837     2837     645



     bravais-lattice index     =            2
     lattice parameter (alat)  =      10.3407  a.u.
     unit-cell volume          =     276.4330 (a.u.)^3
     number of atoms/cell      =            2
     number of atomic types    =            1
     number of electrons       =         8.00
     number of Kohn-Sham states=            4
     kinetic-energy cutoff     =      18.0000  Ry
     charge density cutoff     =      72.0000  Ry
     Exchange-correlation      = SLA  PW   PBE  PBE ( 1  4  3  4 0 0)

     celldm(1)=  10.340700  celldm(2)=   0.000000  celldm(3)=   0.000000
     celldm(4)=   0.000000  celldm(5)=   0.000000  celldm(6)=   0.000000

     crystal axes: (cart. coord. in units of alat)
               a(1) = (  -0.500000   0.000000   0.500000 )  
               a(2) = (   0.000000   0.500000   0.500000 )  
               a(3) = (  -0.500000   0.500000   0.000000 )  

     reciprocal axes: (cart. coord. in units 2 pi/alat)
               b(1) = ( -1.000000 -1.000000  1.000000 )  
               b(2) = (  1.000000  1.000000  1.000000 )  
               b(3) = ( -1.000000  1.000000 -1.000000 )  


     PseudoPot. # 1 for Si read from file:
     /home/max/quantum_espresso/qe-6.1/pseudo/si_pbe_v1.uspp.F.UPF.txt
     MD5 check sum: a056efeee980c13900f22a371efd63c1
     Pseudo is Ultrasoft + core correction, Zval =  4.0
     Generated by new atomic code, or converted to UPF format
     Using radial grid of  899 points,  6 beta functions with: 
                l(1) =   0
                l(2) =   0
                l(3) =   1
                l(4) =   1
                l(5) =   2
                l(6) =   2
     Q(r) pseudized with  8 coefficients,  rinner =    0.900   0.900   0.900
                                                       0.900   0.900

     atomic species   valence    mass     pseudopotential
        Si             4.00    28.08600     Si( 1.00)

     48 Sym. Ops., with inversion, found



   Cartesian axes

     site n.     atom                  positions (alat units)
         1           Si  tau(   1) = (   0.0000000   0.0000000   0.0000000  )
         2           Si  tau(   2) = (   0.2500000   0.2500000   0.2500000  )

     number of k points=   120

     Number of k-points >= 100: set verbosity='high' to print them.

     Dense  grid:     2837 G-vectors     FFT dimensions: (  20,  20,  20)

     Estimated max dynamical RAM per process >       0.33MB

     Estimated total allocated dynamical RAM >       1.32MB

     Check: negative/imaginary core charge=   -0.000006    0.000000

     The potential is recalculated from file :
     ./_ph0/silicon.10.3407.save/charge-density.dat

     Starting wfc are    8 atomic wfcs

     Band Structure Calculation
     Davidson diagonalization with overlap

     ethr =  1.25E-10,  avg # of iterations = 11.7

     total cpu time spent up to now is        0.9 secs

     End of band structure calculation

     Number of k-points >= 100: set verbosity='high' to print the bands.

     highest occupied level (ev):     5.6794

     Writing output data file silicon.10.3407.save

                                                                                

     bravais-lattice index     =            2
     lattice parameter (alat)  =      10.3407  a.u.
     unit-cell volume          =     276.4330 (a.u.)^3
     number of atoms/cell      =            2
     number of atomic types    =            1
     kinetic-energy cut-off    =      18.0000  Ry
     charge density cut-off    =      72.0000  Ry
     convergence threshold     =      1.0E-12
     beta                      =       0.7000
     number of iterations used =            4
     Exchange-correlation      = SLA  PW   PBE  PBE ( 1  4  3  4 0 0)


     celldm(1)=   10.34070  celldm(2)=    0.00000  celldm(3)=    0.00000
     celldm(4)=    0.00000  celldm(5)=    0.00000  celldm(6)=    0.00000

     crystal axes: (cart. coord. in units of alat)
               a(1) = ( -0.5000  0.0000  0.5000 )  
               a(2) = (  0.0000  0.5000  0.5000 )  
               a(3) = ( -0.5000  0.5000  0.0000 )  

     reciprocal axes: (cart. coord. in units 2 pi/alat)
               b(1) = ( -1.0000 -1.0000  1.0000 )  
               b(2) = (  1.0000  1.0000  1.0000 )  
               b(3) = ( -1.0000  1.0000 -1.0000 )  


     Atoms inside the unit cell: 

     Cartesian axes

     site n.  atom      mass           positions (alat units)
        1     Si  28.0860   tau(    1) = (    0.00000    0.00000    0.00000  )
        2     Si  28.0860   tau(    2) = (    0.25000    0.25000    0.25000  )

     Computing dynamical matrix for 
                    q = (  -0.2500000   0.2500000  -0.2500000 )

      6 Sym.Ops. (no q -> -q+G )


     G cutoff =  195.0171  (    710 G-vectors)     FFT grid: ( 20, 20, 20)
     number of k points=   120

     PseudoPot. # 1 for Si read from file:
     /home/max/quantum_espresso/qe-6.1/pseudo/si_pbe_v1.uspp.F.UPF.txt
     MD5 check sum: a056efeee980c13900f22a371efd63c1
     Pseudo is Ultrasoft + core correction, Zval =  4.0
     Generated by new atomic code, or converted to UPF format
     Using radial grid of  899 points,  6 beta functions with: 
                l(1) =   0
                l(2) =   0
                l(3) =   1
                l(4) =   1
                l(5) =   2
                l(6) =   2
     Q(r) pseudized with  8 coefficients,  rinner =    0.900   0.900   0.900
                                                       0.900   0.900

     Mode symmetry, C_3v (3m)   point group:


     Atomic displacements:
     There are   4 irreducible representations

     Representation     1      1 modes -A_1  L_1  To be done

     Representation     2      1 modes -A_1  L_1  To be done

     Representation     3      2 modes -E    L_3  To be done

     Representation     4      2 modes -E    L_3  To be done



     Alpha used in Ewald sum =   0.7000
     PHONON       :     4.96s CPU         5.21s WALL



     Representation #  1 mode #   1

     Self-consistent Calculation

      iter #   1 total cpu time :     5.4 secs   av.it.:   5.5
      thresh= 1.000E-02 alpha_mix =  0.700 |ddv_scf|^2 =  2.467E-03

      iter #   2 total cpu time :     5.7 secs   av.it.:   7.5
      thresh= 4.967E-03 alpha_mix =  0.700 |ddv_scf|^2 =  3.725E-02

      iter #   3 total cpu time :     5.9 secs   av.it.:   6.3
      thresh= 1.000E-02 alpha_mix =  0.700 |ddv_scf|^2 =  1.715E-06

      iter #   4 total cpu time :     6.1 secs   av.it.:   8.2
      thresh= 1.310E-04 alpha_mix =  0.700 |ddv_scf|^2 =  1.163E-07

      iter #   5 total cpu time :     6.6 secs   av.it.:   8.1
      thresh= 3.411E-05 alpha_mix =  0.700 |ddv_scf|^2 =  4.708E-09

      iter #   6 total cpu time :     6.8 secs   av.it.:   8.0
      thresh= 6.862E-06 alpha_mix =  0.700 |ddv_scf|^2 =  5.043E-09

      iter #   7 total cpu time :     7.0 secs   av.it.:   6.0
      thresh= 7.102E-06 alpha_mix =  0.700 |ddv_scf|^2 =  4.275E-10

      iter #   8 total cpu time :     7.3 secs   av.it.:   7.3
      thresh= 2.068E-06 alpha_mix =  0.700 |ddv_scf|^2 =  4.088E-12

      iter #   9 total cpu time :     7.5 secs   av.it.:   7.1
      thresh= 2.022E-07 alpha_mix =  0.700 |ddv_scf|^2 =  1.587E-13

     End of self-consistent calculation

     Convergence has been achieved 


     Representation #  2 mode #   2

     Self-consistent Calculation

      iter #   1 total cpu time :     7.7 secs   av.it.:   5.5
      thresh= 1.000E-02 alpha_mix =  0.700 |ddv_scf|^2 =  2.467E-03

      iter #   2 total cpu time :     8.0 secs   av.it.:   7.5
      thresh= 4.967E-03 alpha_mix =  0.700 |ddv_scf|^2 =  3.725E-02

      iter #   3 total cpu time :     8.2 secs   av.it.:   6.3
      thresh= 1.000E-02 alpha_mix =  0.700 |ddv_scf|^2 =  1.715E-06

      iter #   4 total cpu time :     8.6 secs   av.it.:   8.2
      thresh= 1.310E-04 alpha_mix =  0.700 |ddv_scf|^2 =  1.163E-07

      iter #   5 total cpu time :     8.9 secs   av.it.:   8.1
      thresh= 3.411E-05 alpha_mix =  0.700 |ddv_scf|^2 =  4.708E-09

      iter #   6 total cpu time :     9.1 secs   av.it.:   8.0
      thresh= 6.862E-06 alpha_mix =  0.700 |ddv_scf|^2 =  5.043E-09

      iter #   7 total cpu time :     9.3 secs   av.it.:   6.0
      thresh= 7.102E-06 alpha_mix =  0.700 |ddv_scf|^2 =  4.275E-10

      iter #   8 total cpu time :     9.6 secs   av.it.:   7.3
      thresh= 2.068E-06 alpha_mix =  0.700 |ddv_scf|^2 =  4.088E-12

      iter #   9 total cpu time :     9.8 secs   av.it.:   7.1
      thresh= 2.022E-07 alpha_mix =  0.700 |ddv_scf|^2 =  1.587E-13

     End of self-consistent calculation

     Convergence has been achieved 


     Representation #  3 modes #   3  4

     Self-consistent Calculation

      iter #   1 total cpu time :    10.2 secs   av.it.:   4.9
      thresh= 1.000E-02 alpha_mix =  0.700 |ddv_scf|^2 =  5.705E-07

      iter #   2 total cpu time :    10.9 secs   av.it.:   9.4
      thresh= 7.553E-05 alpha_mix =  0.700 |ddv_scf|^2 =  4.287E-08

      iter #   3 total cpu time :    11.5 secs   av.it.:   9.2
      thresh= 2.071E-05 alpha_mix =  0.700 |ddv_scf|^2 =  3.707E-09

      iter #   4 total cpu time :    12.0 secs   av.it.:   8.9
      thresh= 6.088E-06 alpha_mix =  0.700 |ddv_scf|^2 =  1.113E-11

      iter #   5 total cpu time :    12.8 secs   av.it.:   9.2
      thresh= 3.337E-07 alpha_mix =  0.700 |ddv_scf|^2 =  4.981E-13

     End of self-consistent calculation

     Convergence has been achieved 


     Representation #  4 modes #   5  6

     Self-consistent Calculation

      iter #   1 total cpu time :    13.2 secs   av.it.:   5.0
      thresh= 1.000E-02 alpha_mix =  0.700 |ddv_scf|^2 =  5.704E-07

      iter #   2 total cpu time :    13.8 secs   av.it.:   9.6
      thresh= 7.552E-05 alpha_mix =  0.700 |ddv_scf|^2 =  4.283E-08

      iter #   3 total cpu time :    14.4 secs   av.it.:   9.4
      thresh= 2.070E-05 alpha_mix =  0.700 |ddv_scf|^2 =  3.704E-09

      iter #   4 total cpu time :    15.0 secs   av.it.:   9.1
      thresh= 6.086E-06 alpha_mix =  0.700 |ddv_scf|^2 =  1.114E-11

      iter #   5 total cpu time :    15.6 secs   av.it.:   9.2
      thresh= 3.337E-07 alpha_mix =  0.700 |ddv_scf|^2 =  4.984E-13

     End of self-consistent calculation

     Convergence has been achieved 

     Number of q in the star =    8
     List of q in the star:
          1  -0.250000000   0.250000000  -0.250000000
          2   0.250000000  -0.250000000  -0.250000000
          3   0.250000000  -0.250000000   0.250000000
          4   0.250000000   0.250000000   0.250000000
          5  -0.250000000  -0.250000000  -0.250000000
          6  -0.250000000  -0.250000000   0.250000000
          7  -0.250000000   0.250000000   0.250000000
          8   0.250000000   0.250000000  -0.250000000

     Diagonalizing the dynamical matrix

     q = (   -0.250000000   0.250000000  -0.250000000 ) 

 **************************************************************************
     freq (    1) =       3.397406 [THz] =     113.325252 [cm-1]
     freq (    2) =       3.397406 [THz] =     113.325252 [cm-1]
     freq (    3) =       6.928035 [THz] =     231.094368 [cm-1]
     freq (    4) =      14.433791 [THz] =     481.459442 [cm-1]
     freq (    5) =      14.744508 [THz] =     491.823833 [cm-1]
     freq (    6) =      14.744508 [THz] =     491.823833 [cm-1]
 **************************************************************************

     Mode symmetry, C_3v (3m)   point group:

     freq (  1 -  2) =        113.3  [cm-1]   --> E    L_3           
     freq (  3 -  3) =        231.1  [cm-1]   --> A_1  L_1           
     freq (  4 -  4) =        481.5  [cm-1]   --> A_1  L_1           
     freq (  5 -  6) =        491.8  [cm-1]   --> E    L_3           

     Calculation of q =    0.5000000  -0.5000000   0.5000000

   Info: using nr1, nr2, nr3 values from input

   Info: using nr1, nr2, nr3 values from input

     Parallelization info
     --------------------
     sticks:   dense  smooth     PW     G-vecs:    dense   smooth      PW
     Min          64      64     27                  709      709     186
     Max          67      67     28                  710      710     189
     Sum         265     265    109                 2837     2837     749



     bravais-lattice index     =            2
     lattice parameter (alat)  =      10.3407  a.u.
     unit-cell volume          =     276.4330 (a.u.)^3
     number of atoms/cell      =            2
     number of atomic types    =            1
     number of electrons       =         8.00
     number of Kohn-Sham states=            4
     kinetic-energy cutoff     =      18.0000  Ry
     charge density cutoff     =      72.0000  Ry
     Exchange-correlation      = SLA  PW   PBE  PBE ( 1  4  3  4 0 0)

     celldm(1)=  10.340700  celldm(2)=   0.000000  celldm(3)=   0.000000
     celldm(4)=   0.000000  celldm(5)=   0.000000  celldm(6)=   0.000000

     crystal axes: (cart. coord. in units of alat)
               a(1) = (  -0.500000   0.000000   0.500000 )  
               a(2) = (   0.000000   0.500000   0.500000 )  
               a(3) = (  -0.500000   0.500000   0.000000 )  

     reciprocal axes: (cart. coord. in units 2 pi/alat)
               b(1) = ( -1.000000 -1.000000  1.000000 )  
               b(2) = (  1.000000  1.000000  1.000000 )  
               b(3) = ( -1.000000  1.000000 -1.000000 )  


     PseudoPot. # 1 for Si read from file:
     /home/max/quantum_espresso/qe-6.1/pseudo/si_pbe_v1.uspp.F.UPF.txt
     MD5 check sum: a056efeee980c13900f22a371efd63c1
     Pseudo is Ultrasoft + core correction, Zval =  4.0
     Generated by new atomic code, or converted to UPF format
     Using radial grid of  899 points,  6 beta functions with: 
                l(1) =   0
                l(2) =   0
                l(3) =   1
                l(4) =   1
                l(5) =   2
                l(6) =   2
     Q(r) pseudized with  8 coefficients,  rinner =    0.900   0.900   0.900
                                                       0.900   0.900

     atomic species   valence    mass     pseudopotential
        Si             4.00    28.08600     Si( 1.00)

     48 Sym. Ops., with inversion, found



   Cartesian axes

     site n.     atom                  positions (alat units)
         1           Si  tau(   1) = (   0.0000000   0.0000000   0.0000000  )
         2           Si  tau(   2) = (   0.2500000   0.2500000   0.2500000  )

     number of k points=    60
                       cart. coord. in units 2pi/alat
        k(    1) = (  -0.1250000   0.1250000   0.1250000), wk =   0.0468750
        k(    2) = (   0.3750000  -0.3750000   0.6250000), wk =   0.0000000
        k(    3) = (  -0.3750000   0.3750000  -0.1250000), wk =   0.0468750
        k(    4) = (   0.1250000  -0.1250000   0.3750000), wk =   0.0000000
        k(    5) = (   0.3750000  -0.3750000   0.6250000), wk =   0.0468750
        k(    6) = (   0.8750000  -0.8750000   1.1250000), wk =   0.0000000
        k(    7) = (   0.1250000  -0.1250000   0.3750000), wk =   0.0468750
        k(    8) = (   0.6250000  -0.6250000   0.8750000), wk =   0.0000000
        k(    9) = (  -0.1250000   0.6250000   0.1250000), wk =   0.0937500
        k(   10) = (   0.3750000   0.1250000   0.6250000), wk =   0.0000000
        k(   11) = (   0.6250000  -0.1250000   0.8750000), wk =   0.0937500
        k(   12) = (   1.1250000  -0.6250000   1.3750000), wk =   0.0000000
        k(   13) = (   0.3750000   0.1250000   0.6250000), wk =   0.0937500
        k(   14) = (   0.8750000  -0.3750000   1.1250000), wk =   0.0000000
        k(   15) = (  -0.1250000  -0.8750000   0.1250000), wk =   0.0937500
        k(   16) = (   0.3750000  -1.3750000   0.6250000), wk =   0.0000000
        k(   17) = (  -0.3750000   0.3750000   0.3750000), wk =   0.0468750
        k(   18) = (   0.1250000  -0.1250000   0.8750000), wk =   0.0000000
        k(   19) = (   0.3750000  -0.3750000   1.1250000), wk =   0.0468750
        k(   20) = (   0.8750000  -0.8750000   1.6250000), wk =   0.0000000
        k(   21) = (   0.1250000  -0.1250000   0.1250000), wk =   0.0156250
        k(   22) = (   0.6250000  -0.6250000   0.6250000), wk =   0.0000000
        k(   23) = (  -0.3750000  -0.3750000  -0.1250000), wk =   0.0937500
        k(   24) = (   0.1250000  -0.8750000   0.3750000), wk =   0.0000000
        k(   25) = (  -0.1250000  -0.3750000   0.3750000), wk =   0.0468750
        k(   26) = (   0.3750000  -0.8750000   0.8750000), wk =   0.0000000
        k(   27) = (   0.3750000   0.3750000   0.6250000), wk =   0.0937500
        k(   28) = (   0.8750000  -0.1250000   1.1250000), wk =   0.0000000
        k(   29) = (   0.6250000   0.3750000  -0.3750000), wk =   0.0468750
        k(   30) = (   1.1250000  -0.1250000   0.1250000), wk =   0.0000000
        k(   31) = (   0.1250000   0.1250000   0.3750000), wk =   0.0937500
        k(   32) = (   0.6250000  -0.3750000   0.8750000), wk =   0.0000000
        k(   33) = (   0.3750000   0.1250000  -0.1250000), wk =   0.0468750
        k(   34) = (   0.8750000  -0.3750000   0.3750000), wk =   0.0000000
        k(   35) = (  -0.1250000  -0.6250000  -0.1250000), wk =   0.0468750
        k(   36) = (   0.3750000  -1.1250000   0.3750000), wk =   0.0000000
        k(   37) = (   0.1250000  -0.6250000   0.1250000), wk =   0.0468750
        k(   38) = (   0.6250000  -1.1250000   0.6250000), wk =   0.0000000
        k(   39) = (   0.6250000   0.1250000   0.8750000), wk =   0.0937500
        k(   40) = (   1.1250000  -0.3750000   1.3750000), wk =   0.0000000
        k(   41) = (  -0.8750000   0.1250000   0.6250000), wk =   0.0937500
        k(   42) = (  -0.3750000  -0.3750000   1.1250000), wk =   0.0000000
        k(   43) = (   0.8750000   0.1250000  -0.6250000), wk =   0.0937500
        k(   44) = (   1.3750000  -0.3750000  -0.1250000), wk =   0.0000000
        k(   45) = (   0.3750000  -0.1250000   0.6250000), wk =   0.0937500
        k(   46) = (   0.8750000  -0.6250000   1.1250000), wk =   0.0000000
        k(   47) = (  -0.6250000  -0.1250000   0.3750000), wk =   0.0937500
        k(   48) = (  -0.1250000  -0.6250000   0.8750000), wk =   0.0000000
        k(   49) = (   0.6250000  -0.1250000  -0.3750000), wk =   0.0937500
        k(   50) = (   1.1250000  -0.6250000   0.1250000), wk =   0.0000000
        k(   51) = (  -0.1250000   0.8750000  -0.1250000), wk =   0.0468750
        k(   52) = (   0.3750000   0.3750000   0.3750000), wk =   0.0000000
        k(   53) = (   0.1250000   0.8750000   0.1250000), wk =   0.0468750
        k(   54) = (   0.6250000   0.3750000   0.6250000), wk =   0.0000000
        k(   55) = (   0.3750000  -0.3750000   0.3750000), wk =   0.0156250
        k(   56) = (   0.8750000  -0.8750000   0.8750000), wk =   0.0000000
        k(   57) = (   0.3750000   0.3750000   1.1250000), wk =   0.0937500
        k(   58) = (   0.8750000  -0.1250000   1.6250000), wk =   0.0000000
        k(   59) = (   1.1250000   0.3750000  -0.3750000), wk =   0.0468750
        k(   60) = (   1.6250000  -0.1250000   0.1250000), wk =   0.0000000

     Dense  grid:     2837 G-vectors     FFT dimensions: (  20,  20,  20)

     Estimated max dynamical RAM per process >       0.33MB

     Estimated total allocated dynamical RAM >       1.32MB

     Check: negative/imaginary core charge=   -0.000006    0.000000

     The potential is recalculated from file :
     ./_ph0/silicon.10.3407.save/charge-density.dat

     Starting wfc are    8 atomic wfcs

     Band Structure Calculation
     Davidson diagonalization with overlap

     ethr =  1.25E-10,  avg # of iterations = 11.7

     total cpu time spent up to now is        1.5 secs

     End of band structure calculation

          k =-0.1250 0.1250 0.1250 (   338 PWs)   bands (ev):

    -5.6378   4.3708   5.6794   5.6794

          k = 0.3750-0.3750 0.6250 (   361 PWs)   bands (ev):

    -3.4835  -0.6860   3.7196   4.4299

          k =-0.3750 0.3750-0.1250 (   352 PWs)   bands (ev):

    -4.6159   1.3820   3.7023   5.1980

          k = 0.1250-0.1250 0.3750 (   353 PWs)   bands (ev):

    -5.1125   2.7533   4.6748   4.7372

          k = 0.3750-0.3750 0.6250 (   361 PWs)   bands (ev):

    -3.4835  -0.6860   3.7196   4.4299

          k = 0.8750-0.8750 1.1250 (   338 PWs)   bands (ev):

    -5.6378   4.3708   5.6794   5.6794

          k = 0.1250-0.1250 0.3750 (   353 PWs)   bands (ev):

    -5.1125   2.7533   4.6748   4.7372

          k = 0.6250-0.6250 0.8750 (   352 PWs)   bands (ev):

    -4.6159   1.3820   3.7023   5.1980

          k =-0.1250 0.6250 0.1250 (   351 PWs)   bands (ev):

    -4.0852   1.0418   3.3560   3.8034

          k = 0.3750 0.1250 0.6250 (   357 PWs)   bands (ev):

    -3.6723   0.1753   2.7172   4.0784

          k = 0.6250-0.1250 0.8750 (   361 PWs)   bands (ev):

    -2.4535  -0.9159   2.0116   3.0804

          k = 1.1250-0.6250 1.3750 (   352 PWs)   bands (ev):

    -4.6159   1.3820   3.7023   5.1980

          k = 0.3750 0.1250 0.6250 (   357 PWs)   bands (ev):

    -3.6723   0.1753   2.7172   4.0784

          k = 0.8750-0.3750 1.1250 (   351 PWs)   bands (ev):

    -4.0852   1.0418   3.3560   3.8034

          k =-0.1250-0.8750 0.1250 (   358 PWs)   bands (ev):

    -2.6190  -0.8193   2.6162   3.3378

          k = 0.3750-1.3750 0.6250 (   361 PWs)   bands (ev):

    -3.4835  -0.6860   3.7196   4.4299

          k =-0.3750 0.3750 0.3750 (   353 PWs)   bands (ev):

    -4.1859   0.0998   4.8924   4.8924

          k = 0.1250-0.1250 0.8750 (   358 PWs)   bands (ev):

    -2.6190  -0.8193   2.6162   3.3378

          k = 0.3750-0.3750 1.1250 (   361 PWs)   bands (ev):

    -2.9892  -0.6086   2.0675   4.1150

          k = 0.8750-0.8750 1.6250 (   351 PWs)   bands (ev):

    -4.0852   1.0418   3.3560   3.8034

          k = 0.1250-0.1250 0.1250 (   338 PWs)   bands (ev):

    -5.6378   4.3708   5.6794   5.6794

          k = 0.6250-0.6250 0.6250 (   353 PWs)   bands (ev):

    -4.1859   0.0998   4.8924   4.8924

          k =-0.3750-0.3750-0.1250 (   352 PWs)   bands (ev):

    -4.6159   1.3820   3.7023   5.1980

          k = 0.1250-0.8750 0.3750 (   361 PWs)   bands (ev):

    -2.4535  -0.9159   2.0116   3.0804

          k =-0.1250-0.3750 0.3750 (   352 PWs)   bands (ev):

    -4.6159   1.3820   3.7023   5.1980

          k = 0.3750-0.8750 0.8750 (   351 PWs)   bands (ev):

    -4.0852   1.0418   3.3560   3.8034

          k = 0.3750 0.3750 0.6250 (   361 PWs)   bands (ev):

    -3.4835  -0.6860   3.7196   4.4299

          k = 0.8750-0.1250 1.1250 (   358 PWs)   bands (ev):

    -2.6190  -0.8193   2.6162   3.3378

          k = 0.6250 0.3750-0.3750 (   361 PWs)   bands (ev):

    -3.4835  -0.6860   3.7196   4.4299

          k = 1.1250-0.1250 0.1250 (   358 PWs)   bands (ev):

    -2.6190  -0.8193   2.6162   3.3378

          k = 0.1250 0.1250 0.3750 (   353 PWs)   bands (ev):

    -5.1125   2.7533   4.6748   4.7372

          k = 0.6250-0.3750 0.8750 (   357 PWs)   bands (ev):

    -3.6723   0.1753   2.7172   4.0784

          k = 0.3750 0.1250-0.1250 (   353 PWs)   bands (ev):

    -5.1125   2.7533   4.6748   4.7372

          k = 0.8750-0.3750 0.3750 (   361 PWs)   bands (ev):

    -2.9892  -0.6086   2.0675   4.1150

          k =-0.1250-0.6250-0.1250 (   351 PWs)   bands (ev):

    -4.0852   1.0418   3.3560   3.8034

          k = 0.3750-1.1250 0.3750 (   361 PWs)   bands (ev):

    -2.9892  -0.6086   2.0675   4.1150

          k = 0.1250-0.6250 0.1250 (   351 PWs)   bands (ev):

    -4.0852   1.0418   3.3560   3.8034

          k = 0.6250-1.1250 0.6250 (   352 PWs)   bands (ev):

    -4.6159   1.3820   3.7023   5.1980

          k = 0.6250 0.1250 0.8750 (   361 PWs)   bands (ev):

    -2.4535  -0.9159   2.0116   3.0804

          k = 1.1250-0.3750 1.3750 (   357 PWs)   bands (ev):

    -3.6723   0.1753   2.7172   4.0784

          k =-0.8750 0.1250 0.6250 (   361 PWs)   bands (ev):

    -2.4535  -0.9159   2.0116   3.0804

          k =-0.3750-0.3750 1.1250 (   361 PWs)   bands (ev):

    -2.9892  -0.6086   2.0675   4.1150

          k = 0.8750 0.1250-0.6250 (   361 PWs)   bands (ev):

    -2.4535  -0.9159   2.0116   3.0804

          k = 1.3750-0.3750-0.1250 (   357 PWs)   bands (ev):

    -3.6723   0.1753   2.7172   4.0784

          k = 0.3750-0.1250 0.6250 (   357 PWs)   bands (ev):

    -3.6723   0.1753   2.7172   4.0784

          k = 0.8750-0.6250 1.1250 (   353 PWs)   bands (ev):

    -5.1125   2.7533   4.6748   4.7372

          k =-0.6250-0.1250 0.3750 (   357 PWs)   bands (ev):

    -3.6723   0.1753   2.7172   4.0784

          k =-0.1250-0.6250 0.8750 (   361 PWs)   bands (ev):

    -2.4535  -0.9159   2.0116   3.0804

          k = 0.6250-0.1250-0.3750 (   357 PWs)   bands (ev):

    -3.6723   0.1753   2.7172   4.0784

          k = 1.1250-0.6250 0.1250 (   361 PWs)   bands (ev):

    -2.4535  -0.9159   2.0116   3.0804

          k =-0.1250 0.8750-0.1250 (   358 PWs)   bands (ev):

    -2.6190  -0.8193   2.6162   3.3378

          k = 0.3750 0.3750 0.3750 (   353 PWs)   bands (ev):

    -4.1859   0.0998   4.8924   4.8924

          k = 0.1250 0.8750 0.1250 (   358 PWs)   bands (ev):

    -2.6190  -0.8193   2.6162   3.3378

          k = 0.6250 0.3750 0.6250 (   361 PWs)   bands (ev):

    -3.4835  -0.6860   3.7196   4.4299

          k = 0.3750-0.3750 0.3750 (   353 PWs)   bands (ev):

    -4.1859   0.0998   4.8924   4.8924

          k = 0.8750-0.8750 0.8750 (   338 PWs)   bands (ev):

    -5.6378   4.3708   5.6794   5.6794

          k = 0.3750 0.3750 1.1250 (   361 PWs)   bands (ev):

    -2.9892  -0.6086   2.0675   4.1150

          k = 0.8750-0.1250 1.6250 (   361 PWs)   bands (ev):

    -2.4535  -0.9159   2.0116   3.0804

          k = 1.1250 0.3750-0.3750 (   361 PWs)   bands (ev):

    -2.9892  -0.6086   2.0675   4.1150

          k = 1.6250-0.1250 0.1250 (   353 PWs)   bands (ev):

    -5.1125   2.7533   4.6748   4.7372

     highest occupied level (ev):     5.6794

     Writing output data file silicon.10.3407.save

                                                                                

     bravais-lattice index     =            2
     lattice parameter (alat)  =      10.3407  a.u.
     unit-cell volume          =     276.4330 (a.u.)^3
     number of atoms/cell      =            2
     number of atomic types    =            1
     kinetic-energy cut-off    =      18.0000  Ry
     charge density cut-off    =      72.0000  Ry
     convergence threshold     =      1.0E-12
     beta                      =       0.7000
     number of iterations used =            4
     Exchange-correlation      = SLA  PW   PBE  PBE ( 1  4  3  4 0 0)


     celldm(1)=   10.34070  celldm(2)=    0.00000  celldm(3)=    0.00000
     celldm(4)=    0.00000  celldm(5)=    0.00000  celldm(6)=    0.00000

     crystal axes: (cart. coord. in units of alat)
               a(1) = ( -0.5000  0.0000  0.5000 )  
               a(2) = (  0.0000  0.5000  0.5000 )  
               a(3) = ( -0.5000  0.5000  0.0000 )  

     reciprocal axes: (cart. coord. in units 2 pi/alat)
               b(1) = ( -1.0000 -1.0000  1.0000 )  
               b(2) = (  1.0000  1.0000  1.0000 )  
               b(3) = ( -1.0000  1.0000 -1.0000 )  


     Atoms inside the unit cell: 

     Cartesian axes

     site n.  atom      mass           positions (alat units)
        1     Si  28.0860   tau(    1) = (    0.00000    0.00000    0.00000  )
        2     Si  28.0860   tau(    2) = (    0.25000    0.25000    0.25000  )

     Computing dynamical matrix for 
                    q = (   0.5000000  -0.5000000   0.5000000 )

     13 Sym.Ops. (with q -> -q+G )


     G cutoff =  195.0171  (    710 G-vectors)     FFT grid: ( 20, 20, 20)
     number of k points=    60

     PseudoPot. # 1 for Si read from file:
     /home/max/quantum_espresso/qe-6.1/pseudo/si_pbe_v1.uspp.F.UPF.txt
     MD5 check sum: a056efeee980c13900f22a371efd63c1
     Pseudo is Ultrasoft + core correction, Zval =  4.0
     Generated by new atomic code, or converted to UPF format
     Using radial grid of  899 points,  6 beta functions with: 
                l(1) =   0
                l(2) =   0
                l(3) =   1
                l(4) =   1
                l(5) =   2
                l(6) =   2
     Q(r) pseudized with  8 coefficients,  rinner =    0.900   0.900   0.900
                                                       0.900   0.900


     Atomic displacements:
     There are   4 irreducible representations

     Representation     1      1 modes -  To be done

     Representation     2      1 modes -  To be done

     Representation     3      2 modes -  To be done

     Representation     4      2 modes -  To be done



     Alpha used in Ewald sum =   0.7000
     PHONON       :    15.41s CPU        16.34s WALL



     Representation #  1 mode #   1

     Self-consistent Calculation

      iter #   1 total cpu time :    16.6 secs   av.it.:   4.8
      thresh= 1.000E-02 alpha_mix =  0.700 |ddv_scf|^2 =  2.485E-05

      iter #   2 total cpu time :    16.8 secs   av.it.:   8.3
      thresh= 4.985E-04 alpha_mix =  0.700 |ddv_scf|^2 =  2.213E-05

      iter #   3 total cpu time :    16.9 secs   av.it.:   7.5
      thresh= 4.705E-04 alpha_mix =  0.700 |ddv_scf|^2 =  4.350E-08

      iter #   4 total cpu time :    17.0 secs   av.it.:   7.4
      thresh= 2.086E-05 alpha_mix =  0.700 |ddv_scf|^2 =  1.337E-10

      iter #   5 total cpu time :    17.2 secs   av.it.:   7.9
      thresh= 1.156E-06 alpha_mix =  0.700 |ddv_scf|^2 =  3.557E-12

      iter #   6 total cpu time :    17.3 secs   av.it.:   7.9
      thresh= 1.886E-07 alpha_mix =  0.700 |ddv_scf|^2 =  4.304E-14

     End of self-consistent calculation

     Convergence has been achieved 


     Representation #  2 mode #   2

     Self-consistent Calculation

      iter #   1 total cpu time :    17.4 secs   av.it.:   5.7
      thresh= 1.000E-02 alpha_mix =  0.700 |ddv_scf|^2 =  3.452E-04

      iter #   2 total cpu time :    17.6 secs   av.it.:   8.3
      thresh= 1.858E-03 alpha_mix =  0.700 |ddv_scf|^2 =  1.064E-03

      iter #   3 total cpu time :    17.7 secs   av.it.:   7.1
      thresh= 3.262E-03 alpha_mix =  0.700 |ddv_scf|^2 =  1.302E-07

      iter #   4 total cpu time :    17.8 secs   av.it.:   8.1
      thresh= 3.609E-05 alpha_mix =  0.700 |ddv_scf|^2 =  8.375E-09

      iter #   5 total cpu time :    18.0 secs   av.it.:   8.5
      thresh= 9.152E-06 alpha_mix =  0.700 |ddv_scf|^2 =  1.345E-10

      iter #   6 total cpu time :    18.1 secs   av.it.:   8.2
      thresh= 1.160E-06 alpha_mix =  0.700 |ddv_scf|^2 =  2.498E-12

      iter #   7 total cpu time :    18.3 secs   av.it.:   7.9
      thresh= 1.580E-07 alpha_mix =  0.700 |ddv_scf|^2 =  4.888E-15

     End of self-consistent calculation

     Convergence has been achieved 


     Representation #  3 modes #   3  4

     Self-consistent Calculation

      iter #   1 total cpu time :    18.7 secs   av.it.:   4.7
      thresh= 1.000E-02 alpha_mix =  0.700 |ddv_scf|^2 =  3.322E-07

      iter #   2 total cpu time :    19.0 secs   av.it.:   9.0
      thresh= 5.763E-05 alpha_mix =  0.700 |ddv_scf|^2 =  2.812E-08

      iter #   3 total cpu time :    19.2 secs   av.it.:   8.3
      thresh= 1.677E-05 alpha_mix =  0.700 |ddv_scf|^2 =  5.000E-10

      iter #   4 total cpu time :    19.5 secs   av.it.:   8.8
      thresh= 2.236E-06 alpha_mix =  0.700 |ddv_scf|^2 =  6.194E-12

      iter #   5 total cpu time :    19.8 secs   av.it.:   8.7
      thresh= 2.489E-07 alpha_mix =  0.700 |ddv_scf|^2 =  3.100E-14

     End of self-consistent calculation

     Convergence has been achieved 


     Representation #  4 modes #   5  6

     Self-consistent Calculation

      iter #   1 total cpu time :    20.0 secs   av.it.:   5.0
      thresh= 1.000E-02 alpha_mix =  0.700 |ddv_scf|^2 =  9.857E-07

      iter #   2 total cpu time :    20.4 secs   av.it.:   9.4
      thresh= 9.928E-05 alpha_mix =  0.700 |ddv_scf|^2 =  7.743E-08

      iter #   3 total cpu time :    20.8 secs   av.it.:   9.3
      thresh= 2.783E-05 alpha_mix =  0.700 |ddv_scf|^2 =  5.011E-09

      iter #   4 total cpu time :    21.1 secs   av.it.:   8.5
      thresh= 7.079E-06 alpha_mix =  0.700 |ddv_scf|^2 =  6.429E-12

      iter #   5 total cpu time :    21.4 secs   av.it.:   8.8
      thresh= 2.536E-07 alpha_mix =  0.700 |ddv_scf|^2 =  2.328E-14

     End of self-consistent calculation

     Convergence has been achieved 

     Number of q in the star =    4
     List of q in the star:
          1   0.500000000  -0.500000000   0.500000000
          2   0.500000000   0.500000000   0.500000000
          3  -0.500000000   0.500000000   0.500000000
          4   0.500000000   0.500000000  -0.500000000

     Diagonalizing the dynamical matrix

     q = (    0.500000000  -0.500000000   0.500000000 ) 

 **************************************************************************
     freq (    1) =       4.775696 [THz] =     159.300082 [cm-1]
     freq (    2) =       4.775696 [THz] =     159.300082 [cm-1]
     freq (    3) =      11.809661 [THz] =     393.927884 [cm-1]
     freq (    4) =      12.140687 [THz] =     404.969719 [cm-1]
     freq (    5) =      14.669835 [THz] =     489.333007 [cm-1]
     freq (    6) =      14.669835 [THz] =     489.333007 [cm-1]
 **************************************************************************

     Calculation of q =    0.0000000   0.5000000   0.0000000

   Info: using nr1, nr2, nr3 values from input

   Info: using nr1, nr2, nr3 values from input

     Parallelization info
     --------------------
     sticks:   dense  smooth     PW     G-vecs:    dense   smooth      PW
     Min          64      64     27                  709      709     175
     Max          67      67     28                  710      710     176
     Sum         265     265    109                 2837     2837     701



     bravais-lattice index     =            2
     lattice parameter (alat)  =      10.3407  a.u.
     unit-cell volume          =     276.4330 (a.u.)^3
     number of atoms/cell      =            2
     number of atomic types    =            1
     number of electrons       =         8.00
     number of Kohn-Sham states=            4
     kinetic-energy cutoff     =      18.0000  Ry
     charge density cutoff     =      72.0000  Ry
     Exchange-correlation      = SLA  PW   PBE  PBE ( 1  4  3  4 0 0)

     celldm(1)=  10.340700  celldm(2)=   0.000000  celldm(3)=   0.000000
     celldm(4)=   0.000000  celldm(5)=   0.000000  celldm(6)=   0.000000

     crystal axes: (cart. coord. in units of alat)
               a(1) = (  -0.500000   0.000000   0.500000 )  
               a(2) = (   0.000000   0.500000   0.500000 )  
               a(3) = (  -0.500000   0.500000   0.000000 )  

     reciprocal axes: (cart. coord. in units 2 pi/alat)
               b(1) = ( -1.000000 -1.000000  1.000000 )  
               b(2) = (  1.000000  1.000000  1.000000 )  
               b(3) = ( -1.000000  1.000000 -1.000000 )  


     PseudoPot. # 1 for Si read from file:
     /home/max/quantum_espresso/qe-6.1/pseudo/si_pbe_v1.uspp.F.UPF.txt
     MD5 check sum: a056efeee980c13900f22a371efd63c1
     Pseudo is Ultrasoft + core correction, Zval =  4.0
     Generated by new atomic code, or converted to UPF format
     Using radial grid of  899 points,  6 beta functions with: 
                l(1) =   0
                l(2) =   0
                l(3) =   1
                l(4) =   1
                l(5) =   2
                l(6) =   2
     Q(r) pseudized with  8 coefficients,  rinner =    0.900   0.900   0.900
                                                       0.900   0.900

     atomic species   valence    mass     pseudopotential
        Si             4.00    28.08600     Si( 1.00)

     48 Sym. Ops., with inversion, found



   Cartesian axes

     site n.     atom                  positions (alat units)
         1           Si  tau(   1) = (   0.0000000   0.0000000   0.0000000  )
         2           Si  tau(   2) = (   0.2500000   0.2500000   0.2500000  )

     number of k points=    80
                       cart. coord. in units 2pi/alat
        k(    1) = (  -0.1250000   0.1250000   0.1250000), wk =   0.0312500
        k(    2) = (  -0.1250000   0.6250000   0.1250000), wk =   0.0000000
        k(    3) = (  -0.3750000   0.3750000  -0.1250000), wk =   0.0625000
        k(    4) = (  -0.3750000   0.8750000  -0.1250000), wk =   0.0000000
        k(    5) = (   0.3750000  -0.3750000   0.6250000), wk =   0.0625000
        k(    6) = (   0.3750000   0.1250000   0.6250000), wk =   0.0000000
        k(    7) = (   0.1250000  -0.1250000   0.3750000), wk =   0.0625000
        k(    8) = (   0.1250000   0.3750000   0.3750000), wk =   0.0000000
        k(    9) = (  -0.1250000   0.6250000   0.1250000), wk =   0.0312500
        k(   10) = (  -0.1250000   1.1250000   0.1250000), wk =   0.0000000
        k(   11) = (   0.6250000  -0.1250000   0.8750000), wk =   0.0625000
        k(   12) = (   0.6250000   0.3750000   0.8750000), wk =   0.0000000
        k(   13) = (   0.3750000   0.1250000   0.6250000), wk =   0.0625000
        k(   14) = (   0.3750000   0.6250000   0.6250000), wk =   0.0000000
        k(   15) = (  -0.1250000  -0.8750000   0.1250000), wk =   0.0312500
        k(   16) = (  -0.1250000  -0.3750000   0.1250000), wk =   0.0000000
        k(   17) = (  -0.3750000   0.3750000   0.3750000), wk =   0.0312500
        k(   18) = (  -0.3750000   0.8750000   0.3750000), wk =   0.0000000
        k(   19) = (   0.3750000  -0.3750000   1.1250000), wk =   0.0625000
        k(   20) = (   0.3750000   0.1250000   1.1250000), wk =   0.0000000
        k(   21) = (  -0.1250000  -0.1250000   0.1250000), wk =   0.0312500
        k(   22) = (  -0.1250000   0.3750000   0.1250000), wk =   0.0000000
        k(   23) = (   0.1250000  -0.3750000   0.3750000), wk =   0.0625000
        k(   24) = (   0.1250000   0.1250000   0.3750000), wk =   0.0000000
        k(   25) = (   0.3750000  -0.1250000   0.3750000), wk =   0.0312500
        k(   26) = (   0.3750000   0.3750000   0.3750000), wk =   0.0000000
        k(   27) = (   0.3750000   0.1250000   0.3750000), wk =   0.0312500
        k(   28) = (   0.3750000   0.6250000   0.3750000), wk =   0.0000000
        k(   29) = (  -0.6250000   0.3750000  -0.3750000), wk =   0.0625000
        k(   30) = (  -0.6250000   0.8750000  -0.3750000), wk =   0.0000000
        k(   31) = (  -0.3750000   0.6250000  -0.3750000), wk =   0.0312500
        k(   32) = (  -0.3750000   1.1250000  -0.3750000), wk =   0.0000000
        k(   33) = (  -0.3750000  -0.6250000  -0.3750000), wk =   0.0312500
        k(   34) = (  -0.3750000  -0.1250000  -0.3750000), wk =   0.0000000
        k(   35) = (  -0.3750000   0.1250000  -0.1250000), wk =   0.0625000
        k(   36) = (  -0.3750000   0.6250000  -0.1250000), wk =   0.0000000
        k(   37) = (  -0.1250000   0.3750000  -0.1250000), wk =   0.0312500
        k(   38) = (  -0.1250000   0.8750000  -0.1250000), wk =   0.0000000
        k(   39) = (  -0.1250000  -0.3750000  -0.1250000), wk =   0.0312500
        k(   40) = (  -0.1250000   0.1250000  -0.1250000), wk =   0.0000000
        k(   41) = (  -0.1250000  -0.6250000   0.1250000), wk =   0.0312500
        k(   42) = (  -0.1250000  -0.1250000   0.1250000), wk =   0.0000000
        k(   43) = (   0.6250000  -0.1250000  -0.1250000), wk =   0.0625000
        k(   44) = (   0.6250000   0.3750000  -0.1250000), wk =   0.0000000
        k(   45) = (   0.6250000   0.1250000   0.1250000), wk =   0.0625000
        k(   46) = (   0.6250000   0.6250000   0.1250000), wk =   0.0000000
        k(   47) = (  -0.8750000   0.1250000  -0.6250000), wk =   0.0625000
        k(   48) = (  -0.8750000   0.6250000  -0.6250000), wk =   0.0000000
        k(   49) = (  -0.1250000   0.6250000  -0.8750000), wk =   0.0625000
        k(   50) = (  -0.1250000   1.1250000  -0.8750000), wk =   0.0000000
        k(   51) = (  -0.1250000   0.8750000  -0.6250000), wk =   0.0625000
        k(   52) = (  -0.1250000   1.3750000  -0.6250000), wk =   0.0000000
        k(   53) = (  -0.1250000  -0.8750000  -0.6250000), wk =   0.0625000
        k(   54) = (  -0.1250000  -0.3750000  -0.6250000), wk =   0.0000000
        k(   55) = (   0.8750000  -0.6250000   0.1250000), wk =   0.0625000
        k(   56) = (   0.8750000  -0.1250000   0.1250000), wk =   0.0000000
        k(   57) = (  -0.6250000  -0.1250000  -0.3750000), wk =   0.0625000
        k(   58) = (  -0.6250000   0.3750000  -0.3750000), wk =   0.0000000
        k(   59) = (   0.1250000   0.3750000  -0.6250000), wk =   0.0625000
        k(   60) = (   0.1250000   0.8750000  -0.6250000), wk =   0.0000000
        k(   61) = (   0.1250000   0.6250000  -0.3750000), wk =   0.0625000
        k(   62) = (   0.1250000   1.1250000  -0.3750000), wk =   0.0000000
        k(   63) = (   0.1250000  -0.6250000  -0.3750000), wk =   0.0625000
        k(   64) = (   0.1250000  -0.1250000  -0.3750000), wk =   0.0000000
        k(   65) = (   0.6250000  -0.3750000  -0.1250000), wk =   0.0625000
        k(   66) = (   0.6250000   0.1250000  -0.1250000), wk =   0.0000000
        k(   67) = (  -0.1250000   0.8750000   0.1250000), wk =   0.0312500
        k(   68) = (  -0.1250000   1.3750000   0.1250000), wk =   0.0000000
        k(   69) = (  -0.8750000  -0.1250000  -0.1250000), wk =   0.0625000
        k(   70) = (  -0.8750000   0.3750000  -0.1250000), wk =   0.0000000
        k(   71) = (  -0.8750000   0.1250000   0.1250000), wk =   0.0625000
        k(   72) = (  -0.8750000   0.6250000   0.1250000), wk =   0.0000000
        k(   73) = (  -0.3750000  -0.3750000   0.3750000), wk =   0.0312500
        k(   74) = (  -0.3750000   0.1250000   0.3750000), wk =   0.0000000
        k(   75) = (  -1.1250000   0.3750000  -0.3750000), wk =   0.0625000
        k(   76) = (  -1.1250000   0.8750000  -0.3750000), wk =   0.0000000
        k(   77) = (  -0.3750000   1.1250000  -0.3750000), wk =   0.0312500
        k(   78) = (  -0.3750000   1.6250000  -0.3750000), wk =   0.0000000
        k(   79) = (  -0.3750000  -1.1250000  -0.3750000), wk =   0.0312500
        k(   80) = (  -0.3750000  -0.6250000  -0.3750000), wk =   0.0000000

     Dense  grid:     2837 G-vectors     FFT dimensions: (  20,  20,  20)

     Estimated max dynamical RAM per process >       0.33MB

     Estimated total allocated dynamical RAM >       1.32MB

     Check: negative/imaginary core charge=   -0.000006    0.000000

     The potential is recalculated from file :
     ./_ph0/silicon.10.3407.save/charge-density.dat

     Starting wfc are    8 atomic wfcs

     Band Structure Calculation
     Davidson diagonalization with overlap

     ethr =  1.25E-10,  avg # of iterations = 11.7

     total cpu time spent up to now is        2.1 secs

     End of band structure calculation

          k =-0.1250 0.1250 0.1250 (   338 PWs)   bands (ev):

    -5.6378   4.3708   5.6794   5.6794

          k =-0.1250 0.6250 0.1250 (   351 PWs)   bands (ev):

    -4.0852   1.0418   3.3560   3.8034

          k =-0.3750 0.3750-0.1250 (   352 PWs)   bands (ev):

    -4.6159   1.3820   3.7023   5.1980

          k =-0.3750 0.8750-0.1250 (   361 PWs)   bands (ev):

    -2.4535  -0.9159   2.0116   3.0804

          k = 0.3750-0.3750 0.6250 (   361 PWs)   bands (ev):

    -3.4835  -0.6860   3.7196   4.4299

          k = 0.3750 0.1250 0.6250 (   357 PWs)   bands (ev):

    -3.6723   0.1753   2.7172   4.0784

          k = 0.1250-0.1250 0.3750 (   353 PWs)   bands (ev):

    -5.1125   2.7533   4.6748   4.7372

          k = 0.1250 0.3750 0.3750 (   352 PWs)   bands (ev):

    -4.6159   1.3820   3.7023   5.1980

          k =-0.1250 0.6250 0.1250 (   351 PWs)   bands (ev):

    -4.0852   1.0418   3.3560   3.8034

          k =-0.1250 1.1250 0.1250 (   358 PWs)   bands (ev):

    -2.6190  -0.8193   2.6162   3.3378

          k = 0.6250-0.1250 0.8750 (   361 PWs)   bands (ev):

    -2.4535  -0.9159   2.0116   3.0804

          k = 0.6250 0.3750 0.8750 (   357 PWs)   bands (ev):

    -3.6723   0.1753   2.7172   4.0784

          k = 0.3750 0.1250 0.6250 (   357 PWs)   bands (ev):

    -3.6723   0.1753   2.7172   4.0784

          k = 0.3750 0.6250 0.6250 (   361 PWs)   bands (ev):

    -3.4835  -0.6860   3.7196   4.4299

          k =-0.1250-0.8750 0.1250 (   358 PWs)   bands (ev):

    -2.6190  -0.8193   2.6162   3.3378

          k =-0.1250-0.3750 0.1250 (   353 PWs)   bands (ev):

    -5.1125   2.7533   4.6748   4.7372

          k =-0.3750 0.3750 0.3750 (   353 PWs)   bands (ev):

    -4.1859   0.0998   4.8924   4.8924

          k =-0.3750 0.8750 0.3750 (   361 PWs)   bands (ev):

    -2.9892  -0.6086   2.0675   4.1150

          k = 0.3750-0.3750 1.1250 (   361 PWs)   bands (ev):

    -2.9892  -0.6086   2.0675   4.1150

          k = 0.3750 0.1250 1.1250 (   361 PWs)   bands (ev):

    -2.4535  -0.9159   2.0116   3.0804

          k =-0.1250-0.1250 0.1250 (   338 PWs)   bands (ev):

    -5.6378   4.3708   5.6794   5.6794

          k =-0.1250 0.3750 0.1250 (   353 PWs)   bands (ev):

    -5.1125   2.7533   4.6748   4.7372

          k = 0.1250-0.3750 0.3750 (   352 PWs)   bands (ev):

    -4.6159   1.3820   3.7023   5.1980

          k = 0.1250 0.1250 0.3750 (   353 PWs)   bands (ev):

    -5.1125   2.7533   4.6748   4.7372

          k = 0.3750-0.1250 0.3750 (   352 PWs)   bands (ev):

    -4.6159   1.3820   3.7023   5.1980

          k = 0.3750 0.3750 0.3750 (   353 PWs)   bands (ev):

    -4.1859   0.0998   4.8924   4.8924

          k = 0.3750 0.1250 0.3750 (   352 PWs)   bands (ev):

    -4.6159   1.3820   3.7023   5.1980

          k = 0.3750 0.6250 0.3750 (   361 PWs)   bands (ev):

    -3.4835  -0.6860   3.7196   4.4299

          k =-0.6250 0.3750-0.3750 (   361 PWs)   bands (ev):

    -3.4835  -0.6860   3.7196   4.4299

          k =-0.6250 0.8750-0.3750 (   357 PWs)   bands (ev):

    -3.6723   0.1753   2.7172   4.0784

          k =-0.3750 0.6250-0.3750 (   361 PWs)   bands (ev):

    -3.4835  -0.6860   3.7196   4.4299

          k =-0.3750 1.1250-0.3750 (   361 PWs)   bands (ev):

    -2.9892  -0.6086   2.0675   4.1150

          k =-0.3750-0.6250-0.3750 (   361 PWs)   bands (ev):

    -3.4835  -0.6860   3.7196   4.4299

          k =-0.3750-0.1250-0.3750 (   352 PWs)   bands (ev):

    -4.6159   1.3820   3.7023   5.1980

          k =-0.3750 0.1250-0.1250 (   353 PWs)   bands (ev):

    -5.1125   2.7533   4.6748   4.7372

          k =-0.3750 0.6250-0.1250 (   357 PWs)   bands (ev):

    -3.6723   0.1753   2.7172   4.0784

          k =-0.1250 0.3750-0.1250 (   353 PWs)   bands (ev):

    -5.1125   2.7533   4.6748   4.7372

          k =-0.1250 0.8750-0.1250 (   358 PWs)   bands (ev):

    -2.6190  -0.8193   2.6162   3.3378

          k =-0.1250-0.3750-0.1250 (   353 PWs)   bands (ev):

    -5.1125   2.7533   4.6748   4.7372

          k =-0.1250 0.1250-0.1250 (   338 PWs)   bands (ev):

    -5.6378   4.3708   5.6794   5.6794

          k =-0.1250-0.6250 0.1250 (   351 PWs)   bands (ev):

    -4.0852   1.0418   3.3560   3.8034

          k =-0.1250-0.1250 0.1250 (   338 PWs)   bands (ev):

    -5.6378   4.3708   5.6794   5.6794

          k = 0.6250-0.1250-0.1250 (   351 PWs)   bands (ev):

    -4.0852   1.0418   3.3560   3.8034

          k = 0.6250 0.3750-0.1250 (   357 PWs)   bands (ev):

    -3.6723   0.1753   2.7172   4.0784

          k = 0.6250 0.1250 0.1250 (   351 PWs)   bands (ev):

    -4.0852   1.0418   3.3560   3.8034

          k = 0.6250 0.6250 0.1250 (   361 PWs)   bands (ev):

    -2.9892  -0.6086   2.0675   4.1150

          k =-0.8750 0.1250-0.6250 (   361 PWs)   bands (ev):

    -2.4535  -0.9159   2.0116   3.0804

          k =-0.8750 0.6250-0.6250 (   352 PWs)   bands (ev):

    -4.6159   1.3820   3.7023   5.1980

          k =-0.1250 0.6250-0.8750 (   361 PWs)   bands (ev):

    -2.4535  -0.9159   2.0116   3.0804

          k =-0.1250 1.1250-0.8750 (   358 PWs)   bands (ev):

    -2.6190  -0.8193   2.6162   3.3378

          k =-0.1250 0.8750-0.6250 (   361 PWs)   bands (ev):

    -2.4535  -0.9159   2.0116   3.0804

          k =-0.1250 1.3750-0.6250 (   361 PWs)   bands (ev):

    -2.9892  -0.6086   2.0675   4.1150

          k =-0.1250-0.8750-0.6250 (   361 PWs)   bands (ev):

    -2.4535  -0.9159   2.0116   3.0804

          k =-0.1250-0.3750-0.6250 (   357 PWs)   bands (ev):

    -3.6723   0.1753   2.7172   4.0784

          k = 0.8750-0.6250 0.1250 (   361 PWs)   bands (ev):

    -2.4535  -0.9159   2.0116   3.0804

          k = 0.8750-0.1250 0.1250 (   358 PWs)   bands (ev):

    -2.6190  -0.8193   2.6162   3.3378

          k =-0.6250-0.1250-0.3750 (   357 PWs)   bands (ev):

    -3.6723   0.1753   2.7172   4.0784

          k =-0.6250 0.3750-0.3750 (   361 PWs)   bands (ev):

    -3.4835  -0.6860   3.7196   4.4299

          k = 0.1250 0.3750-0.6250 (   357 PWs)   bands (ev):

    -3.6723   0.1753   2.7172   4.0784

          k = 0.1250 0.8750-0.6250 (   361 PWs)   bands (ev):

    -2.4535  -0.9159   2.0116   3.0804

          k = 0.1250 0.6250-0.3750 (   357 PWs)   bands (ev):

    -3.6723   0.1753   2.7172   4.0784

          k = 0.1250 1.1250-0.3750 (   361 PWs)   bands (ev):

    -2.4535  -0.9159   2.0116   3.0804

          k = 0.1250-0.6250-0.3750 (   357 PWs)   bands (ev):

    -3.6723   0.1753   2.7172   4.0784

          k = 0.1250-0.1250-0.3750 (   353 PWs)   bands (ev):

    -5.1125   2.7533   4.6748   4.7372

          k = 0.6250-0.3750-0.1250 (   357 PWs)   bands (ev):

    -3.6723   0.1753   2.7172   4.0784

          k = 0.6250 0.1250-0.1250 (   351 PWs)   bands (ev):

    -4.0852   1.0418   3.3560   3.8034

          k =-0.1250 0.8750 0.1250 (   358 PWs)   bands (ev):

    -2.6190  -0.8193   2.6162   3.3378

          k =-0.1250 1.3750 0.1250 (   351 PWs)   bands (ev):

    -4.0852   1.0418   3.3560   3.8034

          k =-0.8750-0.1250-0.1250 (   358 PWs)   bands (ev):

    -2.6190  -0.8193   2.6162   3.3378

          k =-0.8750 0.3750-0.1250 (   361 PWs)   bands (ev):

    -2.4535  -0.9159   2.0116   3.0804

          k =-0.8750 0.1250 0.1250 (   358 PWs)   bands (ev):

    -2.6190  -0.8193   2.6162   3.3378

          k =-0.8750 0.6250 0.1250 (   361 PWs)   bands (ev):

    -2.4535  -0.9159   2.0116   3.0804

          k =-0.3750-0.3750 0.3750 (   353 PWs)   bands (ev):

    -4.1859   0.0998   4.8924   4.8924

          k =-0.3750 0.1250 0.3750 (   352 PWs)   bands (ev):

    -4.6159   1.3820   3.7023   5.1980

          k =-1.1250 0.3750-0.3750 (   361 PWs)   bands (ev):

    -2.9892  -0.6086   2.0675   4.1150

          k =-1.1250 0.8750-0.3750 (   351 PWs)   bands (ev):

    -4.0852   1.0418   3.3560   3.8034

          k =-0.3750 1.1250-0.3750 (   361 PWs)   bands (ev):

    -2.9892  -0.6086   2.0675   4.1150

          k =-0.3750 1.6250-0.3750 (   353 PWs)   bands (ev):

    -4.1859   0.0998   4.8924   4.8924

          k =-0.3750-1.1250-0.3750 (   361 PWs)   bands (ev):

    -2.9892  -0.6086   2.0675   4.1150

          k =-0.3750-0.6250-0.3750 (   361 PWs)   bands (ev):

    -3.4835  -0.6860   3.7196   4.4299

     highest occupied level (ev):     5.6794

     Writing output data file silicon.10.3407.save

                                                                                

     bravais-lattice index     =            2
     lattice parameter (alat)  =      10.3407  a.u.
     unit-cell volume          =     276.4330 (a.u.)^3
     number of atoms/cell      =            2
     number of atomic types    =            1
     kinetic-energy cut-off    =      18.0000  Ry
     charge density cut-off    =      72.0000  Ry
     convergence threshold     =      1.0E-12
     beta                      =       0.7000
     number of iterations used =            4
     Exchange-correlation      = SLA  PW   PBE  PBE ( 1  4  3  4 0 0)


     celldm(1)=   10.34070  celldm(2)=    0.00000  celldm(3)=    0.00000
     celldm(4)=    0.00000  celldm(5)=    0.00000  celldm(6)=    0.00000

     crystal axes: (cart. coord. in units of alat)
               a(1) = ( -0.5000  0.0000  0.5000 )  
               a(2) = (  0.0000  0.5000  0.5000 )  
               a(3) = ( -0.5000  0.5000  0.0000 )  

     reciprocal axes: (cart. coord. in units 2 pi/alat)
               b(1) = ( -1.0000 -1.0000  1.0000 )  
               b(2) = (  1.0000  1.0000  1.0000 )  
               b(3) = ( -1.0000  1.0000 -1.0000 )  


     Atoms inside the unit cell: 

     Cartesian axes

     site n.  atom      mass           positions (alat units)
        1     Si  28.0860   tau(    1) = (    0.00000    0.00000    0.00000  )
        2     Si  28.0860   tau(    2) = (    0.25000    0.25000    0.25000  )

     Computing dynamical matrix for 
                    q = (   0.0000000   0.5000000   0.0000000 )

      8 Sym.Ops. (no q -> -q+G )


     G cutoff =  195.0171  (    710 G-vectors)     FFT grid: ( 20, 20, 20)
     number of k points=    80

     PseudoPot. # 1 for Si read from file:
     /home/max/quantum_espresso/qe-6.1/pseudo/si_pbe_v1.uspp.F.UPF.txt
     MD5 check sum: a056efeee980c13900f22a371efd63c1
     Pseudo is Ultrasoft + core correction, Zval =  4.0
     Generated by new atomic code, or converted to UPF format
     Using radial grid of  899 points,  6 beta functions with: 
                l(1) =   0
                l(2) =   0
                l(3) =   1
                l(4) =   1
                l(5) =   2
                l(6) =   2
     Q(r) pseudized with  8 coefficients,  rinner =    0.900   0.900   0.900
                                                       0.900   0.900

     Mode symmetry, C_4v (4mm)  point group:


     Atomic displacements:
     There are   4 irreducible representations

     Representation     1      1 modes -A_1  G_1 D_1  To be done

     Representation     2      1 modes -B_2  G_4 D_2'  To be done

     Representation     3      2 modes -E    G_5 D_5  To be done

     Representation     4      2 modes -E    G_5 D_5  To be done



     Alpha used in Ewald sum =   0.7000
     PHONON       :    20.97s CPU        22.23s WALL



     Representation #  1 mode #   1

     Self-consistent Calculation

      iter #   1 total cpu time :    22.6 secs   av.it.:   5.8
      thresh= 1.000E-02 alpha_mix =  0.700 |ddv_scf|^2 =  2.967E-03

      iter #   2 total cpu time :    22.7 secs   av.it.:   7.7
      thresh= 5.447E-03 alpha_mix =  0.700 |ddv_scf|^2 =  3.906E-02

      iter #   3 total cpu time :    22.9 secs   av.it.:   6.8
      thresh= 1.000E-02 alpha_mix =  0.700 |ddv_scf|^2 =  1.477E-07

      iter #   4 total cpu time :    23.1 secs   av.it.:   8.1
      thresh= 3.843E-05 alpha_mix =  0.700 |ddv_scf|^2 =  1.421E-08

      iter #   5 total cpu time :    23.3 secs   av.it.:   7.7
      thresh= 1.192E-05 alpha_mix =  0.700 |ddv_scf|^2 =  7.156E-10

      iter #   6 total cpu time :    23.4 secs   av.it.:   7.9
      thresh= 2.675E-06 alpha_mix =  0.700 |ddv_scf|^2 =  2.769E-12

      iter #   7 total cpu time :    23.6 secs   av.it.:   7.9
      thresh= 1.664E-07 alpha_mix =  0.700 |ddv_scf|^2 =  5.333E-13

     End of self-consistent calculation

     Convergence has been achieved 


     Representation #  2 mode #   2

     Self-consistent Calculation

      iter #   1 total cpu time :    23.8 secs   av.it.:   4.9
      thresh= 1.000E-02 alpha_mix =  0.700 |ddv_scf|^2 =  5.508E-06

      iter #   2 total cpu time :    23.9 secs   av.it.:   8.7
      thresh= 2.347E-04 alpha_mix =  0.700 |ddv_scf|^2 =  1.340E-06

      iter #   3 total cpu time :    24.1 secs   av.it.:   8.6
      thresh= 1.158E-04 alpha_mix =  0.700 |ddv_scf|^2 =  4.265E-08

      iter #   4 total cpu time :    24.3 secs   av.it.:   8.2
      thresh= 2.065E-05 alpha_mix =  0.700 |ddv_scf|^2 =  7.155E-10

      iter #   5 total cpu time :    24.7 secs   av.it.:   8.6
      thresh= 2.675E-06 alpha_mix =  0.700 |ddv_scf|^2 =  6.844E-12

      iter #   6 total cpu time :    24.8 secs   av.it.:   8.0
      thresh= 2.616E-07 alpha_mix =  0.700 |ddv_scf|^2 =  7.383E-14

     End of self-consistent calculation

     Convergence has been achieved 


     Representation #  3 modes #   3  4

     Self-consistent Calculation

      iter #   1 total cpu time :    25.1 secs   av.it.:   5.0
      thresh= 1.000E-02 alpha_mix =  0.700 |ddv_scf|^2 =  1.022E-06

      iter #   2 total cpu time :    25.5 secs   av.it.:   9.8
      thresh= 1.011E-04 alpha_mix =  0.700 |ddv_scf|^2 =  1.269E-07

      iter #   3 total cpu time :    25.9 secs   av.it.:   9.5
      thresh= 3.562E-05 alpha_mix =  0.700 |ddv_scf|^2 =  6.698E-09

      iter #   4 total cpu time :    26.3 secs   av.it.:   8.8
      thresh= 8.184E-06 alpha_mix =  0.700 |ddv_scf|^2 =  9.520E-12

      iter #   5 total cpu time :    26.9 secs   av.it.:   9.1
      thresh= 3.085E-07 alpha_mix =  0.700 |ddv_scf|^2 =  2.993E-13

     End of self-consistent calculation

     Convergence has been achieved 


     Representation #  4 modes #   5  6

     Self-consistent Calculation

      iter #   1 total cpu time :    27.2 secs   av.it.:   5.0
      thresh= 1.000E-02 alpha_mix =  0.700 |ddv_scf|^2 =  9.382E-07

      iter #   2 total cpu time :    27.5 secs   av.it.:   9.8
      thresh= 9.686E-05 alpha_mix =  0.700 |ddv_scf|^2 =  1.187E-07

      iter #   3 total cpu time :    27.9 secs   av.it.:   9.4
      thresh= 3.446E-05 alpha_mix =  0.700 |ddv_scf|^2 =  7.004E-09

      iter #   4 total cpu time :    28.3 secs   av.it.:   8.9
      thresh= 8.369E-06 alpha_mix =  0.700 |ddv_scf|^2 =  1.481E-11

      iter #   5 total cpu time :    28.9 secs   av.it.:   9.2
      thresh= 3.848E-07 alpha_mix =  0.700 |ddv_scf|^2 =  4.429E-14

     End of self-consistent calculation

     Convergence has been achieved 

     Number of q in the star =    6
     List of q in the star:
          1   0.000000000   0.500000000   0.000000000
          2   0.000000000  -0.500000000   0.000000000
          3   0.500000000   0.000000000   0.000000000
          4   0.000000000   0.000000000   0.500000000
          5   0.000000000   0.000000000  -0.500000000
          6  -0.500000000   0.000000000   0.000000000

     Diagonalizing the dynamical matrix

     q = (    0.000000000   0.500000000   0.000000000 ) 

 **************************************************************************
     freq (    1) =       4.297695 [THz] =     143.355660 [cm-1]
     freq (    2) =       4.297695 [THz] =     143.355660 [cm-1]
     freq (    3) =       7.152550 [THz] =     238.583398 [cm-1]
     freq (    4) =      14.046113 [THz] =     468.527888 [cm-1]
     freq (    5) =      14.046113 [THz] =     468.527888 [cm-1]
     freq (    6) =      14.674075 [THz] =     489.474445 [cm-1]
 **************************************************************************

     Mode symmetry, C_4v (4mm)  point group:

     freq (  1 -  2) =        143.4  [cm-1]   --> E    G_5 D_5       
     freq (  3 -  3) =        238.6  [cm-1]   --> A_1  G_1 D_1       
     freq (  4 -  5) =        468.5  [cm-1]   --> E    G_5 D_5       
     freq (  6 -  6) =        489.5  [cm-1]   --> B_2  G_4 D_2'      

     Calculation of q =    0.7500000  -0.2500000   0.7500000

   Info: using nr1, nr2, nr3 values from input

   Info: using nr1, nr2, nr3 values from input

     Parallelization info
     --------------------
     sticks:   dense  smooth     PW     G-vecs:    dense   smooth      PW
     Min          64      64     30                  709      709     216
     Max          67      67     31                  710      710     218
     Sum         265     265    121                 2837     2837     869



     bravais-lattice index     =            2
     lattice parameter (alat)  =      10.3407  a.u.
     unit-cell volume          =     276.4330 (a.u.)^3
     number of atoms/cell      =            2
     number of atomic types    =            1
     number of electrons       =         8.00
     number of Kohn-Sham states=            4
     kinetic-energy cutoff     =      18.0000  Ry
     charge density cutoff     =      72.0000  Ry
     Exchange-correlation      = SLA  PW   PBE  PBE ( 1  4  3  4 0 0)

     celldm(1)=  10.340700  celldm(2)=   0.000000  celldm(3)=   0.000000
     celldm(4)=   0.000000  celldm(5)=   0.000000  celldm(6)=   0.000000

     crystal axes: (cart. coord. in units of alat)
               a(1) = (  -0.500000   0.000000   0.500000 )  
               a(2) = (   0.000000   0.500000   0.500000 )  
               a(3) = (  -0.500000   0.500000   0.000000 )  

     reciprocal axes: (cart. coord. in units 2 pi/alat)
               b(1) = ( -1.000000 -1.000000  1.000000 )  
               b(2) = (  1.000000  1.000000  1.000000 )  
               b(3) = ( -1.000000  1.000000 -1.000000 )  


     PseudoPot. # 1 for Si read from file:
     /home/max/quantum_espresso/qe-6.1/pseudo/si_pbe_v1.uspp.F.UPF.txt
     MD5 check sum: a056efeee980c13900f22a371efd63c1
     Pseudo is Ultrasoft + core correction, Zval =  4.0
     Generated by new atomic code, or converted to UPF format
     Using radial grid of  899 points,  6 beta functions with: 
                l(1) =   0
                l(2) =   0
                l(3) =   1
                l(4) =   1
                l(5) =   2
                l(6) =   2
     Q(r) pseudized with  8 coefficients,  rinner =    0.900   0.900   0.900
                                                       0.900   0.900

     atomic species   valence    mass     pseudopotential
        Si             4.00    28.08600     Si( 1.00)

     48 Sym. Ops., with inversion, found



   Cartesian axes

     site n.     atom                  positions (alat units)
         1           Si  tau(   1) = (   0.0000000   0.0000000   0.0000000  )
         2           Si  tau(   2) = (   0.2500000   0.2500000   0.2500000  )

     number of k points=   288

     Number of k-points >= 100: set verbosity='high' to print them.

     Dense  grid:     2837 G-vectors     FFT dimensions: (  20,  20,  20)

     Estimated max dynamical RAM per process >       0.33MB

     Estimated total allocated dynamical RAM >       1.32MB

     Check: negative/imaginary core charge=   -0.000006    0.000000

     The potential is recalculated from file :
     ./_ph0/silicon.10.3407.save/charge-density.dat

     Starting wfc are    8 atomic wfcs

     Band Structure Calculation
     Davidson diagonalization with overlap

     ethr =  1.25E-10,  avg # of iterations = 11.6

     total cpu time spent up to now is        4.1 secs

     End of band structure calculation

     Number of k-points >= 100: set verbosity='high' to print the bands.

     highest occupied level (ev):     5.6794

     Writing output data file silicon.10.3407.save

                                                                                

     bravais-lattice index     =            2
     lattice parameter (alat)  =      10.3407  a.u.
     unit-cell volume          =     276.4330 (a.u.)^3
     number of atoms/cell      =            2
     number of atomic types    =            1
     kinetic-energy cut-off    =      18.0000  Ry
     charge density cut-off    =      72.0000  Ry
     convergence threshold     =      1.0E-12
     beta                      =       0.7000
     number of iterations used =            4
     Exchange-correlation      = SLA  PW   PBE  PBE ( 1  4  3  4 0 0)


     celldm(1)=   10.34070  celldm(2)=    0.00000  celldm(3)=    0.00000
     celldm(4)=    0.00000  celldm(5)=    0.00000  celldm(6)=    0.00000

     crystal axes: (cart. coord. in units of alat)
               a(1) = ( -0.5000  0.0000  0.5000 )  
               a(2) = (  0.0000  0.5000  0.5000 )  
               a(3) = ( -0.5000  0.5000  0.0000 )  

     reciprocal axes: (cart. coord. in units 2 pi/alat)
               b(1) = ( -1.0000 -1.0000  1.0000 )  
               b(2) = (  1.0000  1.0000  1.0000 )  
               b(3) = ( -1.0000  1.0000 -1.0000 )  


     Atoms inside the unit cell: 

     Cartesian axes

     site n.  atom      mass           positions (alat units)
        1     Si  28.0860   tau(    1) = (    0.00000    0.00000    0.00000  )
        2     Si  28.0860   tau(    2) = (    0.25000    0.25000    0.25000  )

     Computing dynamical matrix for 
                    q = (   0.7500000  -0.2500000   0.7500000 )

      2 Sym.Ops. (no q -> -q+G )


     G cutoff =  195.0171  (    710 G-vectors)     FFT grid: ( 20, 20, 20)
     number of k points=   288

     PseudoPot. # 1 for Si read from file:
     /home/max/quantum_espresso/qe-6.1/pseudo/si_pbe_v1.uspp.F.UPF.txt
     MD5 check sum: a056efeee980c13900f22a371efd63c1
     Pseudo is Ultrasoft + core correction, Zval =  4.0
     Generated by new atomic code, or converted to UPF format
     Using radial grid of  899 points,  6 beta functions with: 
                l(1) =   0
                l(2) =   0
                l(3) =   1
                l(4) =   1
                l(5) =   2
                l(6) =   2
     Q(r) pseudized with  8 coefficients,  rinner =    0.900   0.900   0.900
                                                       0.900   0.900

     Mode symmetry, C_s (m)     point group:


     Atomic displacements:
     There are   6 irreducible representations

     Representation     1      1 modes -A'  To be done

     Representation     2      1 modes -A'  To be done

     Representation     3      1 modes -A'  To be done

     Representation     4      1 modes -A'  To be done

     Representation     5      1 modes -A''  To be done

     Representation     6      1 modes -A''  To be done



     Alpha used in Ewald sum =   0.7000
     PHONON       :    29.57s CPU        31.52s WALL



     Representation #  1 mode #   1

     Self-consistent Calculation

      iter #   1 total cpu time :    32.0 secs   av.it.:   5.3
      thresh= 1.000E-02 alpha_mix =  0.700 |ddv_scf|^2 =  6.123E-05

      iter #   2 total cpu time :    32.8 secs   av.it.:   8.9
      thresh= 7.825E-04 alpha_mix =  0.700 |ddv_scf|^2 =  1.604E-04

      iter #   3 total cpu time :    33.4 secs   av.it.:   7.6
      thresh= 1.266E-03 alpha_mix =  0.700 |ddv_scf|^2 =  1.148E-06

      iter #   4 total cpu time :    34.1 secs   av.it.:   8.4
      thresh= 1.071E-04 alpha_mix =  0.700 |ddv_scf|^2 =  6.154E-08

      iter #   5 total cpu time :    34.8 secs   av.it.:   8.3
      thresh= 2.481E-05 alpha_mix =  0.700 |ddv_scf|^2 =  7.538E-09

      iter #   6 total cpu time :    35.5 secs   av.it.:   8.5
      thresh= 8.682E-06 alpha_mix =  0.700 |ddv_scf|^2 =  8.339E-11

      iter #   7 total cpu time :    36.1 secs   av.it.:   8.8
      thresh= 9.132E-07 alpha_mix =  0.700 |ddv_scf|^2 =  2.992E-12

      iter #   8 total cpu time :    36.9 secs   av.it.:   8.6
      thresh= 1.730E-07 alpha_mix =  0.700 |ddv_scf|^2 =  1.927E-13

     End of self-consistent calculation

     Convergence has been achieved 


     Representation #  2 mode #   2

     Self-consistent Calculation

      iter #   1 total cpu time :    37.5 secs   av.it.:   5.4
      thresh= 1.000E-02 alpha_mix =  0.700 |ddv_scf|^2 =  1.090E-04

      iter #   2 total cpu time :    38.1 secs   av.it.:   8.7
      thresh= 1.044E-03 alpha_mix =  0.700 |ddv_scf|^2 =  3.109E-04

      iter #   3 total cpu time :    38.9 secs   av.it.:   7.4
      thresh= 1.763E-03 alpha_mix =  0.700 |ddv_scf|^2 =  7.934E-07

      iter #   4 total cpu time :    39.5 secs   av.it.:   8.6
      thresh= 8.907E-05 alpha_mix =  0.700 |ddv_scf|^2 =  6.004E-08

      iter #   5 total cpu time :    40.1 secs   av.it.:   8.2
      thresh= 2.450E-05 alpha_mix =  0.700 |ddv_scf|^2 =  1.070E-08

      iter #   6 total cpu time :    40.9 secs   av.it.:   8.5
      thresh= 1.035E-05 alpha_mix =  0.700 |ddv_scf|^2 =  8.344E-11

      iter #   7 total cpu time :    41.6 secs   av.it.:   8.7
      thresh= 9.135E-07 alpha_mix =  0.700 |ddv_scf|^2 =  2.674E-12

      iter #   8 total cpu time :    42.2 secs   av.it.:   8.7
      thresh= 1.635E-07 alpha_mix =  0.700 |ddv_scf|^2 =  7.111E-13

     End of self-consistent calculation

     Convergence has been achieved 


     Representation #  3 mode #   3

     Self-consistent Calculation

      iter #   1 total cpu time :    42.9 secs   av.it.:   5.3
      thresh= 1.000E-02 alpha_mix =  0.700 |ddv_scf|^2 =  8.555E-05

      iter #   2 total cpu time :    43.5 secs   av.it.:   8.7
      thresh= 9.249E-04 alpha_mix =  0.700 |ddv_scf|^2 =  2.281E-04

      iter #   3 total cpu time :    44.1 secs   av.it.:   7.4
      thresh= 1.510E-03 alpha_mix =  0.700 |ddv_scf|^2 =  1.352E-06

      iter #   4 total cpu time :    44.9 secs   av.it.:   8.2
      thresh= 1.163E-04 alpha_mix =  0.700 |ddv_scf|^2 =  6.166E-08

      iter #   5 total cpu time :    45.5 secs   av.it.:   8.4
      thresh= 2.483E-05 alpha_mix =  0.700 |ddv_scf|^2 =  1.100E-08

      iter #   6 total cpu time :    46.1 secs   av.it.:   8.5
      thresh= 1.049E-05 alpha_mix =  0.700 |ddv_scf|^2 =  4.796E-11

      iter #   7 total cpu time :    46.9 secs   av.it.:   8.7
      thresh= 6.925E-07 alpha_mix =  0.700 |ddv_scf|^2 =  1.771E-12

      iter #   8 total cpu time :    47.6 secs   av.it.:   8.8
      thresh= 1.331E-07 alpha_mix =  0.700 |ddv_scf|^2 =  3.860E-13

     End of self-consistent calculation

     Convergence has been achieved 


     Representation #  4 mode #   4

     Self-consistent Calculation

      iter #   1 total cpu time :    48.1 secs   av.it.:   5.2
      thresh= 1.000E-02 alpha_mix =  0.700 |ddv_scf|^2 =  3.778E-05

      iter #   2 total cpu time :    48.9 secs   av.it.:   8.9
[...]
        k(   59) = (  -0.8750000   0.1250000  -0.1250000), wk =   0.0625000
        k(   60) = (  -1.3750000  -0.8750000  -0.1250000), wk =   0.0000000
        k(   61) = (  -1.1250000   0.3750000  -0.3750000), wk =   0.0625000
        k(   62) = (  -1.6250000  -0.6250000  -0.3750000), wk =   0.0000000
        k(   63) = (  -0.3750000   0.3750000   1.1250000), wk =   0.0625000
        k(   64) = (  -0.8750000  -0.6250000   1.1250000), wk =   0.0000000

     Dense  grid:     2837 G-vectors     FFT dimensions: (  20,  20,  20)

     Estimated max dynamical RAM per process >       0.33MB

     Estimated total allocated dynamical RAM >       1.32MB

     Check: negative/imaginary core charge=   -0.000006    0.000000

     The potential is recalculated from file :
     ./_ph0/silicon.10.3407.save/charge-density.dat

     Starting wfc are    8 atomic wfcs

     Band Structure Calculation
     Davidson diagonalization with overlap

     ethr =  1.25E-10,  avg # of iterations = 11.6

     total cpu time spent up to now is        6.3 secs

     End of band structure calculation

          k =-0.1250 0.1250 0.1250 (   338 PWs)   bands (ev):

    -5.6378   4.3708   5.6794   5.6794

          k =-0.6250-0.8750 0.1250 (   361 PWs)   bands (ev):

    -2.4535  -0.9159   2.0116   3.0804

          k =-0.3750 0.3750-0.1250 (   352 PWs)   bands (ev):

    -4.6159   1.3820   3.7023   5.1980

          k =-0.8750-0.6250-0.1250 (   361 PWs)   bands (ev):

    -2.4535  -0.9159   2.0116   3.0804

          k = 0.3750-0.3750 0.6250 (   361 PWs)   bands (ev):

    -3.4835  -0.6860   3.7196   4.4299

          k =-0.1250-1.3750 0.6250 (   361 PWs)   bands (ev):

    -2.9892  -0.6086   2.0675   4.1150

          k = 0.1250-0.1250 0.3750 (   353 PWs)   bands (ev):

    -5.1125   2.7533   4.6748   4.7372

          k =-0.3750-1.1250 0.3750 (   361 PWs)   bands (ev):

    -2.9892  -0.6086   2.0675   4.1150

          k =-0.1250 0.6250 0.1250 (   351 PWs)   bands (ev):

    -4.0852   1.0418   3.3560   3.8034

          k =-0.6250-0.3750 0.1250 (   357 PWs)   bands (ev):

    -3.6723   0.1753   2.7172   4.0784

          k = 0.6250-0.1250 0.8750 (   361 PWs)   bands (ev):

    -2.4535  -0.9159   2.0116   3.0804

          k = 0.1250-1.1250 0.8750 (   358 PWs)   bands (ev):

    -2.6190  -0.8193   2.6162   3.3378

          k = 0.3750 0.1250 0.6250 (   357 PWs)   bands (ev):

    -3.6723   0.1753   2.7172   4.0784

          k =-0.1250-0.8750 0.6250 (   361 PWs)   bands (ev):

    -2.4535  -0.9159   2.0116   3.0804

          k =-0.1250-0.8750 0.1250 (   358 PWs)   bands (ev):

    -2.6190  -0.8193   2.6162   3.3378

          k =-0.6250-1.8750 0.1250 (   351 PWs)   bands (ev):

    -4.0852   1.0418   3.3560   3.8034

          k =-0.3750 0.3750 0.3750 (   353 PWs)   bands (ev):

    -4.1859   0.0998   4.8924   4.8924

          k =-0.8750-0.6250 0.3750 (   357 PWs)   bands (ev):

    -3.6723   0.1753   2.7172   4.0784

          k = 0.3750-0.3750 1.1250 (   361 PWs)   bands (ev):

    -2.9892  -0.6086   2.0675   4.1150

          k =-0.1250-1.3750 1.1250 (   361 PWs)   bands (ev):

    -2.4535  -0.9159   2.0116   3.0804

          k = 0.1250-0.3750 0.3750 (   352 PWs)   bands (ev):

    -4.6159   1.3820   3.7023   5.1980

          k =-0.3750-1.3750 0.3750 (   361 PWs)   bands (ev):

    -3.4835  -0.6860   3.7196   4.4299

          k = 0.3750-0.3750-0.1250 (   352 PWs)   bands (ev):

    -4.6159   1.3820   3.7023   5.1980

          k =-0.1250-1.3750-0.1250 (   351 PWs)   bands (ev):

    -4.0852   1.0418   3.3560   3.8034

          k =-0.6250 0.3750-0.3750 (   361 PWs)   bands (ev):

    -3.4835  -0.6860   3.7196   4.4299

          k =-1.1250-0.6250-0.3750 (   357 PWs)   bands (ev):

    -3.6723   0.1753   2.7172   4.0784

          k =-0.3750 0.3750 0.6250 (   361 PWs)   bands (ev):

    -3.4835  -0.6860   3.7196   4.4299

          k =-0.8750-0.6250 0.6250 (   352 PWs)   bands (ev):

    -4.6159   1.3820   3.7023   5.1980

          k =-0.3750 0.1250-0.1250 (   353 PWs)   bands (ev):

    -5.1125   2.7533   4.6748   4.7372

          k =-0.8750-0.8750-0.1250 (   358 PWs)   bands (ev):

    -2.6190  -0.8193   2.6162   3.3378

          k =-0.1250 0.1250 0.3750 (   353 PWs)   bands (ev):

    -5.1125   2.7533   4.6748   4.7372

          k =-0.6250-0.8750 0.3750 (   357 PWs)   bands (ev):

    -3.6723   0.1753   2.7172   4.0784

          k = 0.1250 0.6250-0.1250 (   351 PWs)   bands (ev):

    -4.0852   1.0418   3.3560   3.8034

          k =-0.3750-0.3750-0.1250 (   352 PWs)   bands (ev):

    -4.6159   1.3820   3.7023   5.1980

          k = 0.6250 0.1250-0.1250 (   351 PWs)   bands (ev):

    -4.0852   1.0418   3.3560   3.8034

          k = 0.1250-0.8750-0.1250 (   358 PWs)   bands (ev):

    -2.6190  -0.8193   2.6162   3.3378

          k =-0.8750 0.1250-0.6250 (   361 PWs)   bands (ev):

    -2.4535  -0.9159   2.0116   3.0804

          k =-1.3750-0.8750-0.6250 (   352 PWs)   bands (ev):

    -4.6159   1.3820   3.7023   5.1980

          k = 0.8750-0.1250 0.6250 (   361 PWs)   bands (ev):

    -2.4535  -0.9159   2.0116   3.0804

          k = 0.3750-1.1250 0.6250 (   357 PWs)   bands (ev):

    -3.6723   0.1753   2.7172   4.0784

          k =-0.6250 0.1250 0.8750 (   361 PWs)   bands (ev):

    -2.4535  -0.9159   2.0116   3.0804

          k =-1.1250-0.8750 0.8750 (   338 PWs)   bands (ev):

    -5.6378   4.3708   5.6794   5.6794

          k =-0.1250 0.8750 0.6250 (   361 PWs)   bands (ev):

    -2.4535  -0.9159   2.0116   3.0804

          k =-0.6250-0.1250 0.6250 (   361 PWs)   bands (ev):

    -2.9892  -0.6086   2.0675   4.1150

          k = 0.1250 0.8750-0.6250 (   361 PWs)   bands (ev):

    -2.4535  -0.9159   2.0116   3.0804

          k =-0.3750-0.1250-0.6250 (   357 PWs)   bands (ev):

    -3.6723   0.1753   2.7172   4.0784

          k =-0.6250-0.1250-0.3750 (   357 PWs)   bands (ev):

    -3.6723   0.1753   2.7172   4.0784

          k =-1.1250-1.1250-0.3750 (   351 PWs)   bands (ev):

    -4.0852   1.0418   3.3560   3.8034

          k = 0.6250 0.1250 0.3750 (   357 PWs)   bands (ev):

    -3.6723   0.1753   2.7172   4.0784

          k = 0.1250-0.8750 0.3750 (   361 PWs)   bands (ev):

    -2.4535  -0.9159   2.0116   3.0804

          k =-0.3750-0.1250 0.6250 (   357 PWs)   bands (ev):

    -3.6723   0.1753   2.7172   4.0784

          k =-0.8750-1.1250 0.6250 (   353 PWs)   bands (ev):

    -5.1125   2.7533   4.6748   4.7372

          k = 0.1250 0.6250 0.3750 (   357 PWs)   bands (ev):

    -3.6723   0.1753   2.7172   4.0784

          k =-0.3750-0.3750 0.3750 (   353 PWs)   bands (ev):

    -4.1859   0.0998   4.8924   4.8924

          k =-0.1250 0.6250-0.3750 (   357 PWs)   bands (ev):

    -3.6723   0.1753   2.7172   4.0784

          k =-0.6250-0.3750-0.3750 (   361 PWs)   bands (ev):

    -3.4835  -0.6860   3.7196   4.4299

          k = 0.1250-0.8750-0.1250 (   358 PWs)   bands (ev):

    -2.6190  -0.8193   2.6162   3.3378

          k =-0.3750-1.8750-0.1250 (   353 PWs)   bands (ev):

    -5.1125   2.7533   4.6748   4.7372

          k =-0.8750 0.1250-0.1250 (   358 PWs)   bands (ev):

    -2.6190  -0.8193   2.6162   3.3378

          k =-1.3750-0.8750-0.1250 (   361 PWs)   bands (ev):

    -2.4535  -0.9159   2.0116   3.0804

          k =-1.1250 0.3750-0.3750 (   361 PWs)   bands (ev):

    -2.9892  -0.6086   2.0675   4.1150

          k =-1.6250-0.6250-0.3750 (   361 PWs)   bands (ev):

    -3.4835  -0.6860   3.7196   4.4299

          k =-0.3750 0.3750 1.1250 (   361 PWs)   bands (ev):

    -2.9892  -0.6086   2.0675   4.1150

          k =-0.8750-0.6250 1.1250 (   353 PWs)   bands (ev):

    -5.1125   2.7533   4.6748   4.7372

     highest occupied level (ev):     5.6794

     Writing output data file silicon.10.3407.save

                                                                                

     bravais-lattice index     =            2
     lattice parameter (alat)  =      10.3407  a.u.
     unit-cell volume          =     276.4330 (a.u.)^3
     number of atoms/cell      =            2
     number of atomic types    =            1
     kinetic-energy cut-off    =      18.0000  Ry
     charge density cut-off    =      72.0000  Ry
     convergence threshold     =      1.0E-12
     beta                      =       0.7000
     number of iterations used =            4
     Exchange-correlation      = SLA  PW   PBE  PBE ( 1  4  3  4 0 0)


     celldm(1)=   10.34070  celldm(2)=    0.00000  celldm(3)=    0.00000
     celldm(4)=    0.00000  celldm(5)=    0.00000  celldm(6)=    0.00000

     crystal axes: (cart. coord. in units of alat)
               a(1) = ( -0.5000  0.0000  0.5000 )  
               a(2) = (  0.0000  0.5000  0.5000 )  
               a(3) = ( -0.5000  0.5000  0.0000 )  

     reciprocal axes: (cart. coord. in units 2 pi/alat)
               b(1) = ( -1.0000 -1.0000  1.0000 )  
               b(2) = (  1.0000  1.0000  1.0000 )  
               b(3) = ( -1.0000  1.0000 -1.0000 )  


     Atoms inside the unit cell: 

     Cartesian axes

     site n.  atom      mass           positions (alat units)
        1     Si  28.0860   tau(    1) = (    0.00000    0.00000    0.00000  )
        2     Si  28.0860   tau(    2) = (    0.25000    0.25000    0.25000  )

     Computing dynamical matrix for 
                    q = (  -0.5000000  -1.0000000   0.0000000 )

      8 Sym.Ops. (no q -> -q+G )


     G cutoff =  195.0171  (    710 G-vectors)     FFT grid: ( 20, 20, 20)
     number of k points=    64

     PseudoPot. # 1 for Si read from file:
     /home/max/quantum_espresso/qe-6.1/pseudo/si_pbe_v1.uspp.F.UPF.txt
     MD5 check sum: a056efeee980c13900f22a371efd63c1
     Pseudo is Ultrasoft + core correction, Zval =  4.0
     Generated by new atomic code, or converted to UPF format
     Using radial grid of  899 points,  6 beta functions with: 
                l(1) =   0
                l(2) =   0
                l(3) =   1
                l(4) =   1
                l(5) =   2
                l(6) =   2
     Q(r) pseudized with  8 coefficients,  rinner =    0.900   0.900   0.900
                                                       0.900   0.900


     Atomic displacements:
     There are   3 irreducible representations

     Representation     1      2 modes -  To be done

     Representation     2      2 modes -  To be done

     Representation     3      2 modes -  To be done



     Alpha used in Ewald sum =   0.7000
     PHONON       :  1m13.70s CPU     1m18.51s WALL



     Representation #  1 modes #   1  2

     Self-consistent Calculation

      iter #   1 total cpu time :    78.8 secs   av.it.:   5.3
      thresh= 1.000E-02 alpha_mix =  0.700 |ddv_scf|^2 =  6.367E-06

      iter #   2 total cpu time :    79.1 secs   av.it.:   9.9
      thresh= 2.523E-04 alpha_mix =  0.700 |ddv_scf|^2 =  3.436E-06

      iter #   3 total cpu time :    79.4 secs   av.it.:   9.2
      thresh= 1.854E-04 alpha_mix =  0.700 |ddv_scf|^2 =  9.058E-09

      iter #   4 total cpu time :    79.7 secs   av.it.:   9.0
      thresh= 9.518E-06 alpha_mix =  0.700 |ddv_scf|^2 =  1.955E-11

      iter #   5 total cpu time :    80.0 secs   av.it.:   9.2
      thresh= 4.421E-07 alpha_mix =  0.700 |ddv_scf|^2 =  5.728E-13

     End of self-consistent calculation

     Convergence has been achieved 


     Representation #  2 modes #   3  4

     Self-consistent Calculation

      iter #   1 total cpu time :    80.3 secs   av.it.:   5.2
      thresh= 1.000E-02 alpha_mix =  0.700 |ddv_scf|^2 =  9.811E-06

      iter #   2 total cpu time :    80.8 secs   av.it.:   9.9
      thresh= 3.132E-04 alpha_mix =  0.700 |ddv_scf|^2 =  1.308E-05

      iter #   3 total cpu time :    81.1 secs   av.it.:   9.1
      thresh= 3.617E-04 alpha_mix =  0.700 |ddv_scf|^2 =  1.054E-08

      iter #   4 total cpu time :    81.4 secs   av.it.:   8.8
      thresh= 1.027E-05 alpha_mix =  0.700 |ddv_scf|^2 =  8.422E-11

      iter #   5 total cpu time :    81.7 secs   av.it.:   9.4
      thresh= 9.177E-07 alpha_mix =  0.700 |ddv_scf|^2 =  1.798E-12

      iter #   6 total cpu time :    82.0 secs   av.it.:   9.1
      thresh= 1.341E-07 alpha_mix =  0.700 |ddv_scf|^2 =  1.473E-14

     End of self-consistent calculation

     Convergence has been achieved 


     Representation #  3 modes #   5  6

     Self-consistent Calculation

      iter #   1 total cpu time :    82.3 secs   av.it.:   5.1
      thresh= 1.000E-02 alpha_mix =  0.700 |ddv_scf|^2 =  2.669E-06

      iter #   2 total cpu time :    82.8 secs   av.it.:   9.7
      thresh= 1.634E-04 alpha_mix =  0.700 |ddv_scf|^2 =  1.451E-06

      iter #   3 total cpu time :    83.1 secs   av.it.:   9.0
      thresh= 1.205E-04 alpha_mix =  0.700 |ddv_scf|^2 =  8.773E-09

      iter #   4 total cpu time :    83.4 secs   av.it.:   8.7
      thresh= 9.366E-06 alpha_mix =  0.700 |ddv_scf|^2 =  4.382E-11

      iter #   5 total cpu time :    83.7 secs   av.it.:   9.1
      thresh= 6.620E-07 alpha_mix =  0.700 |ddv_scf|^2 =  6.898E-13

     End of self-consistent calculation

     Convergence has been achieved 

     Number of q in the star =    6
     List of q in the star:
          1  -0.500000000  -1.000000000   0.000000000
          2   0.000000000   1.000000000   0.500000000
          3   0.000000000  -1.000000000  -0.500000000
          4   0.500000000   1.000000000   0.000000000
          5  -1.000000000  -0.500000000   0.000000000
          6   0.000000000  -0.500000000  -1.000000000

     Diagonalizing the dynamical matrix

     q = (   -0.500000000  -1.000000000   0.000000000 ) 

 **************************************************************************
     freq (    1) =       7.325696 [THz] =     244.358920 [cm-1]
     freq (    2) =       7.325696 [THz] =     244.358920 [cm-1]
     freq (    3) =      10.950732 [THz] =     365.277095 [cm-1]
     freq (    4) =      10.950732 [THz] =     365.277095 [cm-1]
     freq (    5) =      13.878967 [THz] =     462.952507 [cm-1]
     freq (    6) =      13.878967 [THz] =     462.952507 [cm-1]
 **************************************************************************

     init_run     :      0.52s CPU      0.54s WALL (       7 calls)
     electrons    :      4.80s CPU      5.01s WALL (       7 calls)

     Called by init_run:
     wfcinit      :      0.00s CPU      0.00s WALL (       7 calls)
     potinit      :      0.01s CPU      0.02s WALL (       7 calls)

     Called by electrons:
     c_bands      :      4.80s CPU      5.00s WALL (       7 calls)
     v_of_rho     :      0.01s CPU      0.01s WALL (       8 calls)
     newd         :      0.03s CPU      0.03s WALL (       8 calls)

     Called by c_bands:
     init_us_2    :      0.67s CPU      0.71s WALL (   17588 calls)
     cegterg      :      4.00s CPU      4.16s WALL (     796 calls)

     Called by sum_band:

     Called by *egterg:
     h_psi        :     43.16s CPU     46.14s WALL (  152082 calls)
     s_psi        :      5.72s CPU      6.06s WALL (  308884 calls)
     g_psi        :      0.03s CPU      0.03s WALL (    9268 calls)
     cdiaghg      :      0.45s CPU      0.47s WALL (   10064 calls)

     Called by h_psi:
     h_psi:pot    :     42.97s CPU     45.95s WALL (  152082 calls)
     h_psi:calbec :      4.40s CPU      4.74s WALL (  152082 calls)
     vloc_psi     :     35.51s CPU     37.97s WALL (  152082 calls)
     add_vuspsi   :      2.85s CPU      3.03s WALL (  152082 calls)

     General routines
     calbec       :      9.71s CPU     10.43s WALL (  345256 calls)
     fft          :      0.41s CPU      0.42s WALL (    5239 calls)
     ffts         :      0.16s CPU      0.17s WALL (    2748 calls)
     fftw         :     41.23s CPU     44.16s WALL ( 1377416 calls)
     davcio       :      0.31s CPU      0.32s WALL (   79045 calls)

     Parallel routines
     fft_scatter  :      9.55s CPU     10.76s WALL ( 1385403 calls)

     PHONON       :  1m18.47s CPU     1m23.70s WALL

     INITIALIZATION: 
     phq_setup    :      0.05s CPU      0.05s WALL (       8 calls)
     phq_init     :      2.14s CPU      2.23s WALL (       8 calls)

     phq_init     :      2.14s CPU      2.23s WALL (       8 calls)
     set_drhoc    :      0.29s CPU      0.30s WALL (      24 calls)
     init_vloc    :      0.01s CPU      0.01s WALL (       8 calls)
     init_us_1    :      0.48s CPU      0.48s WALL (       8 calls)
     newd         :      0.03s CPU      0.03s WALL (       8 calls)
     dvanqq       :      0.24s CPU      0.24s WALL (       8 calls)
     drho         :      1.05s CPU      1.09s WALL (       8 calls)

     DYNAMICAL MATRIX:
     dynmat0      :      0.61s CPU      0.65s WALL (       8 calls)
     phqscf       :     68.57s CPU     73.41s WALL (       8 calls)
     dynmatrix    :      0.01s CPU      0.02s WALL (       8 calls)

     phqscf       :     68.57s CPU     73.41s WALL (       8 calls)
     solve_linter :     67.88s CPU     72.70s WALL (      32 calls)
     drhodv       :      0.48s CPU      0.50s WALL (      32 calls)

     dynmat0      :      0.61s CPU      0.65s WALL (       8 calls)
     dynmat_us    :      0.31s CPU      0.32s WALL (       8 calls)
     d2ionq       :      0.00s CPU      0.01s WALL (       8 calls)
     dynmatcc     :      0.25s CPU      0.28s WALL (       8 calls)

     dynmat_us    :      0.31s CPU      0.32s WALL (       8 calls)
     addusdynmat  :      0.00s CPU      0.00s WALL (       8 calls)

     phqscf       :     68.57s CPU     73.41s WALL (       8 calls)
     solve_linter :     67.88s CPU     72.70s WALL (      32 calls)

     solve_linter :     67.88s CPU     72.70s WALL (      32 calls)
     dvqpsi_us    :      1.61s CPU      1.70s WALL (    2508 calls)
     ortho        :      0.97s CPU      1.02s WALL (   15550 calls)
     cgsolve      :     53.23s CPU     57.06s WALL (   15550 calls)
     incdrhoscf   :      4.76s CPU      5.17s WALL (   15550 calls)
     addusddens   :      1.15s CPU      1.17s WALL (     228 calls)
     vpsifft      :      3.34s CPU      3.57s WALL (   12922 calls)
     dv_of_drho   :      0.20s CPU      0.21s WALL (     295 calls)
     mix_pot      :      0.07s CPU      0.07s WALL (     201 calls)
     psymdvscf    :      0.79s CPU      0.80s WALL (     196 calls)
     newdq        :      1.17s CPU      1.23s WALL (     201 calls)
     adddvscf     :      0.46s CPU      0.49s WALL (   13042 calls)
     drhodvus     :      0.00s CPU      0.00s WALL (      32 calls)

     dvqpsi_us    :      1.61s CPU      1.70s WALL (    2508 calls)
     dvqpsi_us_on :      0.81s CPU      0.85s WALL (    2508 calls)

     cgsolve      :     53.23s CPU     57.06s WALL (   15550 calls)
     ch_psi       :     51.24s CPU     54.87s WALL (  141222 calls)

     ch_psi       :     51.24s CPU     54.87s WALL (  141222 calls)
     h_psi        :     43.16s CPU     46.14s WALL (  152082 calls)
     last         :      8.41s CPU      9.04s WALL (  141222 calls)

     h_psi        :     43.16s CPU     46.14s WALL (  152082 calls)
     add_vuspsi   :      2.85s CPU      3.03s WALL (  152082 calls)

     incdrhoscf   :      4.76s CPU      5.17s WALL (   15550 calls)
     addusdbec    :      0.63s CPU      0.68s WALL (   17998 calls)

     drhodvus     :      0.00s CPU      0.00s WALL (      32 calls)

      General routines
     calbec       :      9.71s CPU     10.43s WALL (  345256 calls)
     fft          :      0.41s CPU      0.42s WALL (    5239 calls)
     ffts         :      0.16s CPU      0.17s WALL (    2748 calls)
     fftw         :     41.23s CPU     44.16s WALL ( 1377416 calls)
     davcio       :      0.31s CPU      0.32s WALL (   79045 calls)
     write_rec    :      0.21s CPU      0.22s WALL (     233 calls)


     PHONON       :  1m18.47s CPU     1m23.71s WALL


   This run was terminated on:  16: 4:33   9Nov2017            

=------------------------------------------------------------------------------=
   JOB DONE.
=------------------------------------------------------------------------------=
