
     Program PWSCF v.6.1 (svn rev. 13369) starts on 10Nov2017 at 12:29:29 

     This program is part of the open-source Quantum ESPRESSO suite
     for quantum simulation of materials; please cite
         "P. Giannozzi et al., J. Phys.:Condens. Matter 21 395502 (2009);
          URL http://www.quantum-espresso.org", 
     in publications or presentations arising from this work. More details at
     http://www.quantum-espresso.org/quote

     Parallel version (MPI), running on     4 processors
     R & G space division:  proc/nbgrp/npool/nimage =       4
     Waiting for input...
     Reading input from standard input
     Message from routine read_cards :
     DEPRECATED: no units specified in ATOMIC_POSITIONS card
     Message from routine read_cards :
     ATOMIC_POSITIONS: units set to alat

     Current dimensions of program PWSCF are:
     Max number of different atomic species (ntypx) = 10
     Max number of k-points (npk) =  40000
     Max angular momentum in pseudopotentials (lmaxx) =  3

     Subspace diagonalization in iterative solution of the eigenvalue problem:
     a serial algorithm will be used


     Parallelization info
     --------------------
     sticks:   dense  smooth     PW     G-vecs:    dense   smooth      PW
     Min         356     180     55                 9021     3168     556
     Max         358     181     56                 9022     3171     558
     Sum        1429     721    223                36085    12675    2229



     bravais-lattice index     =            2
     lattice parameter (alat)  =      10.3330  a.u.
     unit-cell volume          =     275.8159 (a.u.)^3
     number of atoms/cell      =            2
     number of atomic types    =            1
     number of electrons       =         8.00
     number of Kohn-Sham states=            4
     kinetic-energy cutoff     =      49.0000  Ry
     charge density cutoff     =     392.0000  Ry
     convergence threshold     =      1.0E-08
     mixing beta               =       0.7000
     number of iterations used =            8  plain     mixing
     Exchange-correlation      = SLA  PW   PBE  PBE ( 1  4  3  4 0 0)

     celldm(1)=  10.333000  celldm(2)=   0.000000  celldm(3)=   0.000000
     celldm(4)=   0.000000  celldm(5)=   0.000000  celldm(6)=   0.000000

     crystal axes: (cart. coord. in units of alat)
               a(1) = (  -0.500000   0.000000   0.500000 )  
               a(2) = (   0.000000   0.500000   0.500000 )  
               a(3) = (  -0.500000   0.500000   0.000000 )  

     reciprocal axes: (cart. coord. in units 2 pi/alat)
               b(1) = ( -1.000000 -1.000000  1.000000 )  
               b(2) = (  1.000000  1.000000  1.000000 )  
               b(3) = ( -1.000000  1.000000 -1.000000 )  


     PseudoPot. # 1 for Si read from file:
     /home/max/quantum_espresso/qe-6.1/pseudo/si_pbe_v1.uspp.F.UPF.txt
     MD5 check sum: a056efeee980c13900f22a371efd63c1
     Pseudo is Ultrasoft + core correction, Zval =  4.0
     Generated by new atomic code, or converted to UPF format
     Using radial grid of  899 points,  6 beta functions with: 
                l(1) =   0
                l(2) =   0
                l(3) =   1
                l(4) =   1
                l(5) =   2
                l(6) =   2
     Q(r) pseudized with  8 coefficients,  rinner =    0.900   0.900   0.900
                                                       0.900   0.900

     atomic species   valence    mass     pseudopotential
        Si             4.00    28.08600     Si( 1.00)

     48 Sym. Ops., with inversion, found (24 have fractional translation)



   Cartesian axes

     site n.     atom                  positions (alat units)
         1           Si  tau(   1) = (   0.0000000   0.0000000   0.0000000  )
         2           Si  tau(   2) = (   0.2500000   0.2500000   0.2500000  )

     number of k points=    28
                       cart. coord. in units 2pi/alat
        k(    1) = (  -0.0833333   0.0833333   0.0833333), wk =   0.0185185
        k(    2) = (  -0.2500000   0.2500000  -0.0833333), wk =   0.0555556
        k(    3) = (  -0.4166667   0.4166667  -0.2500000), wk =   0.0555556
        k(    4) = (   0.4166667  -0.4166667   0.5833333), wk =   0.0555556
        k(    5) = (   0.2500000  -0.2500000   0.4166667), wk =   0.0555556
        k(    6) = (   0.0833333  -0.0833333   0.2500000), wk =   0.0555556
        k(    7) = (  -0.0833333   0.4166667   0.0833333), wk =   0.0555556
        k(    8) = (  -0.2500000   0.5833333  -0.0833333), wk =   0.1111111
        k(    9) = (   0.5833333  -0.2500000   0.7500000), wk =   0.1111111
        k(   10) = (   0.4166667  -0.0833333   0.5833333), wk =   0.1111111
        k(   11) = (   0.2500000   0.0833333   0.4166667), wk =   0.1111111
        k(   12) = (  -0.0833333   0.7500000   0.0833333), wk =   0.0555556
        k(   13) = (   0.7500000  -0.0833333   0.9166667), wk =   0.1111111
        k(   14) = (   0.5833333   0.0833333   0.7500000), wk =   0.1111111
        k(   15) = (   0.4166667   0.2500000   0.5833333), wk =   0.1111111
        k(   16) = (  -0.0833333  -0.9166667   0.0833333), wk =   0.0555556
        k(   17) = (  -0.2500000  -0.7500000  -0.0833333), wk =   0.1111111
        k(   18) = (  -0.0833333  -0.5833333   0.0833333), wk =   0.0555556
        k(   19) = (  -0.2500000   0.2500000   0.2500000), wk =   0.0185185
        k(   20) = (  -0.4166667   0.4166667   0.0833333), wk =   0.0555556
        k(   21) = (   0.4166667  -0.4166667   0.9166667), wk =   0.0555556
        k(   22) = (   0.2500000  -0.2500000   0.7500000), wk =   0.0555556
        k(   23) = (  -0.2500000   0.5833333   0.2500000), wk =   0.0555556
        k(   24) = (   0.5833333  -0.2500000   1.0833333), wk =   0.1111111
        k(   25) = (   0.4166667  -0.0833333   0.9166667), wk =   0.1111111
        k(   26) = (  -0.2500000  -1.0833333   0.2500000), wk =   0.0555556
        k(   27) = (  -0.4166667   0.4166667   0.4166667), wk =   0.0185185
        k(   28) = (   0.4166667  -0.4166667   1.2500000), wk =   0.0555556

     Dense  grid:    36085 G-vectors     FFT dimensions: (  48,  48,  48)

     Smooth grid:    12675 G-vectors     FFT dimensions: (  36,  36,  36)

     Estimated max dynamical RAM per process >       6.60MB

     Estimated total allocated dynamical RAM >      26.39MB

     Initial potential from superposition of free atoms

     starting charge    7.99866, renormalised to    8.00000
     Starting wfc are    8 randomized atomic wfcs

     total cpu time spent up to now is        2.2 secs

     per-process dynamical memory:    12.9 Mb

     Self-consistent Calculation

     iteration #  1     ecut=    49.00 Ry     beta=0.70
     Davidson diagonalization with overlap
     ethr =  1.00E-02,  avg # of iterations =  2.0

     Threshold (ethr) on eigenvalues was too large:
     Diagonalizing with lowered threshold

     Davidson diagonalization with overlap
     ethr =  6.78E-04,  avg # of iterations =  1.0

     total cpu time spent up to now is        5.9 secs

     total energy              =     -19.19134805 Ry
     Harris-Foulkes estimate   =     -19.20379769 Ry
     estimated scf accuracy    <       0.05361399 Ry

     iteration #  2     ecut=    49.00 Ry     beta=0.70
     Davidson diagonalization with overlap
     ethr =  6.70E-04,  avg # of iterations =  1.0

     total cpu time spent up to now is        7.7 secs

     total energy              =     -19.19309419 Ry
     Harris-Foulkes estimate   =     -19.19326688 Ry
     estimated scf accuracy    <       0.00245815 Ry

     iteration #  3     ecut=    49.00 Ry     beta=0.70
     Davidson diagonalization with overlap
     ethr =  3.07E-05,  avg # of iterations =  2.1

     total cpu time spent up to now is        9.6 secs

     total energy              =     -19.19342540 Ry
     Harris-Foulkes estimate   =     -19.19343811 Ry
     estimated scf accuracy    <       0.00004177 Ry

     iteration #  4     ecut=    49.00 Ry     beta=0.70
     Davidson diagonalization with overlap
     ethr =  5.22E-07,  avg # of iterations =  3.6

     total cpu time spent up to now is       11.9 secs

     total energy              =     -19.19346673 Ry
     Harris-Foulkes estimate   =     -19.19346756 Ry
     estimated scf accuracy    <       0.00000313 Ry

     iteration #  5     ecut=    49.00 Ry     beta=0.70
     Davidson diagonalization with overlap
     ethr =  3.91E-08,  avg # of iterations =  2.0

     total cpu time spent up to now is       13.7 secs

     End of self-consistent calculation

          k =-0.0833 0.0833 0.0833 (  1597 PWs)   bands (ev):

    -5.7495   5.1209   5.8390   5.8390

          k =-0.2500 0.2500-0.0833 (  1590 PWs)   bands (ev):

    -5.2800   3.0546   4.6221   5.6297

          k =-0.4167 0.4167-0.2500 (  1599 PWs)   bands (ev):

    -4.2057   0.3299   4.1593   5.0013

          k = 0.4167-0.4167 0.5833 (  1597 PWs)   bands (ev):

    -3.5225  -0.7938   4.2221   4.6269

          k = 0.2500-0.2500 0.4167 (  1596 PWs)   bands (ev):

    -4.6103   1.1641   4.6880   4.7145

          k = 0.0833-0.0833 0.2500 (  1578 PWs)   bands (ev):

    -5.5124   4.0549   5.2041   5.3823

          k =-0.0833 0.4167 0.0833 (  1596 PWs)   bands (ev):

    -5.0423   2.8578   4.4658   4.4848

          k =-0.2500 0.5833-0.0833 (  1599 PWs)   bands (ev):

    -4.1460   1.0383   3.1700   4.1025

          k = 0.5833-0.2500 0.7500 (  1598 PWs)   bands (ev):

    -3.0516  -0.6795   2.5723   3.8801

          k = 0.4167-0.0833 0.5833 (  1597 PWs)   bands (ev):

    -3.7587   0.3575   2.5367   4.3575

          k = 0.2500 0.0833 0.4167 (  1595 PWs)   bands (ev):

    -4.8204   2.0367   3.8562   5.0130

          k =-0.0833 0.7500 0.0833 (  1607 PWs)   bands (ev):

    -3.4445   0.2133   3.1371   3.4696

          k = 0.7500-0.0833 0.9167 (  1607 PWs)   bands (ev):

    -2.2684  -1.1093   2.3118   3.0717

          k = 0.5833 0.0833 0.7500 (  1596 PWs)   bands (ev):

    -2.6376  -0.7712   1.8349   3.6084

          k = 0.4167 0.2500 0.5833 (  1596 PWs)   bands (ev):

    -3.6503  -0.3058   3.4564   4.4530

          k =-0.0833-0.9167 0.0833 (  1607 PWs)   bands (ev):

    -2.3569  -1.1163   2.8718   3.2570

          k =-0.2500-0.7500-0.0833 (  1606 PWs)   bands (ev):

    -3.2796  -0.0056   2.6254   3.4072

          k =-0.0833-0.5833 0.0833 (  1600 PWs)   bands (ev):

    -4.3479   1.5643   3.6723   3.8865

          k =-0.2500 0.2500 0.2500 (  1588 PWs)   bands (ev):

    -5.0540   2.0909   5.2332   5.2332

          k =-0.4167 0.4167 0.0833 (  1589 PWs)   bands (ev):

    -4.3856   1.1591   3.1340   5.0650

          k = 0.4167-0.4167 0.9167 (  1597 PWs)   bands (ev):

    -3.2272  -0.2687   2.0464   4.2916

          k = 0.2500-0.2500 0.7500 (  1600 PWs)   bands (ev):

    -3.1749  -0.3473   2.5151   3.8174

          k =-0.2500 0.5833 0.2500 (  1595 PWs)   bands (ev):

    -3.9686   0.3646   3.5845   4.1853

          k = 0.5833-0.2500 1.0833 (  1596 PWs)   bands (ev):

    -2.9833  -0.3862   2.1459   3.4066

          k = 0.4167-0.0833 0.9167 (  1604 PWs)   bands (ev):

    -2.1660  -1.1170   1.9887   2.7513

          k =-0.2500-1.0833 0.2500 (  1601 PWs)   bands (ev):

    -2.3739  -1.0199   1.8643   3.6256

          k =-0.4167 0.4167 0.4167 (  1595 PWs)   bands (ev):

    -3.8836  -0.3999   4.8484   4.8484

          k = 0.4167-0.4167 1.2500 (  1590 PWs)   bands (ev):

    -3.2900  -0.7025   3.0379   4.4161

     highest occupied level (ev):     5.8390

!    total energy              =     -19.19346714 Ry
     Harris-Foulkes estimate   =     -19.19346713 Ry
     estimated scf accuracy    <          8.2E-09 Ry

     The total energy is the sum of the following terms:

     one-electron contribution =       4.95159174 Ry
     hartree contribution      =       1.13379989 Ry
     xc contribution           =      -8.59662346 Ry
     ewald contribution        =     -16.68223531 Ry

     convergence has been achieved in   5 iterations


     Computing stress (Cartesian axis) and pressure

          total   stress  (Ry/bohr**3)                   (kbar)     P=   -0.19
  -0.00000126  -0.00000000  -0.00000000         -0.19     -0.00     -0.00
  -0.00000000  -0.00000126   0.00000000         -0.00     -0.19      0.00
  -0.00000000   0.00000000  -0.00000126         -0.00      0.00     -0.19


     Writing output data file silicon.49.save

     init_run     :      0.99s CPU      2.10s WALL (       1 calls)
     electrons    :      4.78s CPU     11.52s WALL (       1 calls)
     stress       :      0.73s CPU      1.37s WALL (       1 calls)

     Called by init_run:
     wfcinit      :      0.42s CPU      0.87s WALL (       1 calls)
     potinit      :      0.08s CPU      0.21s WALL (       1 calls)

     Called by electrons:
     c_bands      :      3.26s CPU      8.11s WALL (       6 calls)
     sum_band     :      1.06s CPU      2.50s WALL (       6 calls)
     v_of_rho     :      0.24s CPU      0.51s WALL (       6 calls)
     newd         :      0.31s CPU      0.59s WALL (       6 calls)
     mix_rho      :      0.02s CPU      0.04s WALL (       6 calls)

     Called by c_bands:
     init_us_2    :      0.10s CPU      0.13s WALL (     392 calls)
     cegterg      :      3.02s CPU      7.63s WALL (     168 calls)

     Called by sum_band:
     sum_band:bec :      0.00s CPU      0.00s WALL (     168 calls)
     addusdens    :      0.39s CPU      0.66s WALL (       6 calls)

     Called by *egterg:
     h_psi        :      2.90s CPU      7.08s WALL (     527 calls)
     s_psi        :      0.07s CPU      0.11s WALL (     527 calls)
     g_psi        :      0.01s CPU      0.01s WALL (     331 calls)
     cdiaghg      :      0.09s CPU      0.27s WALL (     471 calls)

     Called by h_psi:
     h_psi:pot    :      2.90s CPU      7.07s WALL (     527 calls)
     h_psi:calbec :      0.22s CPU      0.52s WALL (     527 calls)
     vloc_psi     :      2.60s CPU      6.44s WALL (     527 calls)
     add_vuspsi   :      0.08s CPU      0.11s WALL (     527 calls)

     General routines
     calbec       :      0.34s CPU      0.91s WALL (     723 calls)
     fft          :      0.30s CPU      0.75s WALL (     110 calls)
     ffts         :      0.02s CPU      0.05s WALL (      12 calls)
     fftw         :      2.85s CPU      7.45s WALL (    4626 calls)
     interpolate  :      0.03s CPU      0.07s WALL (      12 calls)
     davcio       :      0.00s CPU      0.00s WALL (      28 calls)

     Parallel routines
     fft_scatter  :      2.01s CPU      6.56s WALL (    4748 calls)

     PWSCF        :     6.79s CPU        15.67s WALL


   This run was terminated on:  12:29:44  10Nov2017            

=------------------------------------------------------------------------------=
   JOB DONE.
=------------------------------------------------------------------------------=
