
     Program PWSCF v.6.1 (svn rev. 13369) starts on 10Nov2017 at 10: 3:18 

     This program is part of the open-source Quantum ESPRESSO suite
     for quantum simulation of materials; please cite
         "P. Giannozzi et al., J. Phys.:Condens. Matter 21 395502 (2009);
          URL http://www.quantum-espresso.org", 
     in publications or presentations arising from this work. More details at
     http://www.quantum-espresso.org/quote

     Parallel version (MPI), running on     4 processors
     R & G space division:  proc/nbgrp/npool/nimage =       4
     Waiting for input...
     Reading input from standard input
     Message from routine read_cards :
     DEPRECATED: no units specified in ATOMIC_POSITIONS card
     Message from routine read_cards :
     ATOMIC_POSITIONS: units set to alat

     Current dimensions of program PWSCF are:
     Max number of different atomic species (ntypx) = 10
     Max number of k-points (npk) =  40000
     Max angular momentum in pseudopotentials (lmaxx) =  3

     Subspace diagonalization in iterative solution of the eigenvalue problem:
     a serial algorithm will be used


     Parallelization info
     --------------------
     sticks:   dense  smooth     PW     G-vecs:    dense   smooth      PW
     Min         133      66     22                 2024      722     152
     Max         134      67     23                 2025      724     153
     Sum         535     265     91                 8099     2891     609



     bravais-lattice index     =            2
     lattice parameter (alat)  =      10.3940  a.u.
     unit-cell volume          =     280.7296 (a.u.)^3
     number of atoms/cell      =            2
     number of atomic types    =            1
     number of electrons       =         8.00
     number of Kohn-Sham states=            4
     kinetic-energy cutoff     =      18.0000  Ry
     charge density cutoff     =     144.0000  Ry
     convergence threshold     =      1.0E-08
     mixing beta               =       0.7000
     number of iterations used =            8  plain     mixing
     Exchange-correlation      = SLA  PW   PBE  PBE ( 1  4  3  4 0 0)

     celldm(1)=  10.394000  celldm(2)=   0.000000  celldm(3)=   0.000000
     celldm(4)=   0.000000  celldm(5)=   0.000000  celldm(6)=   0.000000

     crystal axes: (cart. coord. in units of alat)
               a(1) = (  -0.500000   0.000000   0.500000 )  
               a(2) = (   0.000000   0.500000   0.500000 )  
               a(3) = (  -0.500000   0.500000   0.000000 )  

     reciprocal axes: (cart. coord. in units 2 pi/alat)
               b(1) = ( -1.000000 -1.000000  1.000000 )  
               b(2) = (  1.000000  1.000000  1.000000 )  
               b(3) = ( -1.000000  1.000000 -1.000000 )  


     PseudoPot. # 1 for Si read from file:
     /home/max/quantum_espresso/qe-6.1/pseudo/si_pbe_v1.uspp.F.UPF.txt
     MD5 check sum: a056efeee980c13900f22a371efd63c1
     Pseudo is Ultrasoft + core correction, Zval =  4.0
     Generated by new atomic code, or converted to UPF format
     Using radial grid of  899 points,  6 beta functions with: 
                l(1) =   0
                l(2) =   0
                l(3) =   1
                l(4) =   1
                l(5) =   2
                l(6) =   2
     Q(r) pseudized with  8 coefficients,  rinner =    0.900   0.900   0.900
                                                       0.900   0.900

     atomic species   valence    mass     pseudopotential
        Si             4.00    28.08600     Si( 1.00)

     24 Sym. Ops. (no inversion) found
          (note: 24 additional sym.ops. were found but ignored
           their fractional translations are incommensurate with FFT grid)


   Cartesian axes

     site n.     atom                  positions (alat units)
         1           Si  tau(   1) = (   0.0000000   0.0000000   0.0000000  )
         2           Si  tau(   2) = (   0.2500000   0.2500000   0.2500000  )

     number of k points=    60
                       cart. coord. in units 2pi/alat
        k(    1) = (  -0.0625000   0.0625000   0.0625000), wk =   0.0078125
        k(    2) = (  -0.1875000   0.1875000  -0.0625000), wk =   0.0234375
        k(    3) = (  -0.3125000   0.3125000  -0.1875000), wk =   0.0234375
        k(    4) = (  -0.4375000   0.4375000  -0.3125000), wk =   0.0234375
        k(    5) = (   0.4375000  -0.4375000   0.5625000), wk =   0.0234375
        k(    6) = (   0.3125000  -0.3125000   0.4375000), wk =   0.0234375
        k(    7) = (   0.1875000  -0.1875000   0.3125000), wk =   0.0234375
        k(    8) = (   0.0625000  -0.0625000   0.1875000), wk =   0.0234375
        k(    9) = (  -0.0625000   0.3125000   0.0625000), wk =   0.0234375
        k(   10) = (  -0.1875000   0.4375000  -0.0625000), wk =   0.0468750
        k(   11) = (  -0.3125000   0.5625000  -0.1875000), wk =   0.0468750
        k(   12) = (   0.5625000  -0.3125000   0.6875000), wk =   0.0468750
        k(   13) = (   0.4375000  -0.1875000   0.5625000), wk =   0.0468750
        k(   14) = (   0.3125000  -0.0625000   0.4375000), wk =   0.0468750
        k(   15) = (   0.1875000   0.0625000   0.3125000), wk =   0.0468750
        k(   16) = (  -0.0625000   0.5625000   0.0625000), wk =   0.0234375
        k(   17) = (  -0.1875000   0.6875000  -0.0625000), wk =   0.0468750
        k(   18) = (   0.6875000  -0.1875000   0.8125000), wk =   0.0468750
        k(   19) = (   0.5625000  -0.0625000   0.6875000), wk =   0.0468750
        k(   20) = (   0.4375000   0.0625000   0.5625000), wk =   0.0468750
        k(   21) = (   0.3125000   0.1875000   0.4375000), wk =   0.0468750
        k(   22) = (  -0.0625000   0.8125000   0.0625000), wk =   0.0234375
        k(   23) = (   0.8125000  -0.0625000   0.9375000), wk =   0.0468750
        k(   24) = (   0.6875000   0.0625000   0.8125000), wk =   0.0468750
        k(   25) = (   0.5625000   0.1875000   0.6875000), wk =   0.0468750
        k(   26) = (   0.4375000   0.3125000   0.5625000), wk =   0.0468750
        k(   27) = (  -0.0625000  -0.9375000   0.0625000), wk =   0.0234375
        k(   28) = (  -0.1875000  -0.8125000  -0.0625000), wk =   0.0468750
        k(   29) = (  -0.3125000  -0.6875000  -0.1875000), wk =   0.0468750
        k(   30) = (  -0.0625000  -0.6875000   0.0625000), wk =   0.0234375
        k(   31) = (  -0.1875000  -0.5625000  -0.0625000), wk =   0.0468750
        k(   32) = (  -0.0625000  -0.4375000   0.0625000), wk =   0.0234375
        k(   33) = (  -0.1875000   0.1875000   0.1875000), wk =   0.0078125
        k(   34) = (  -0.3125000   0.3125000   0.0625000), wk =   0.0234375
        k(   35) = (  -0.4375000   0.4375000  -0.0625000), wk =   0.0234375
        k(   36) = (   0.4375000  -0.4375000   0.8125000), wk =   0.0234375
        k(   37) = (   0.3125000  -0.3125000   0.6875000), wk =   0.0234375
        k(   38) = (   0.1875000  -0.1875000   0.5625000), wk =   0.0234375
        k(   39) = (  -0.1875000   0.4375000   0.1875000), wk =   0.0234375
        k(   40) = (  -0.3125000   0.5625000   0.0625000), wk =   0.0468750
        k(   41) = (   0.5625000  -0.3125000   0.9375000), wk =   0.0468750
        k(   42) = (   0.4375000  -0.1875000   0.8125000), wk =   0.0468750
        k(   43) = (   0.3125000  -0.0625000   0.6875000), wk =   0.0468750
        k(   44) = (  -0.1875000   0.6875000   0.1875000), wk =   0.0234375
        k(   45) = (   0.6875000  -0.1875000   1.0625000), wk =   0.0468750
        k(   46) = (   0.5625000  -0.0625000   0.9375000), wk =   0.0468750
        k(   47) = (   0.4375000   0.0625000   0.8125000), wk =   0.0468750
        k(   48) = (  -0.1875000  -1.0625000   0.1875000), wk =   0.0234375
        k(   49) = (  -0.3125000  -0.9375000   0.0625000), wk =   0.0468750
        k(   50) = (  -0.1875000  -0.8125000   0.1875000), wk =   0.0234375
        k(   51) = (  -0.3125000   0.3125000   0.3125000), wk =   0.0078125
        k(   52) = (  -0.4375000   0.4375000   0.1875000), wk =   0.0234375
        k(   53) = (   0.4375000  -0.4375000   1.0625000), wk =   0.0234375
        k(   54) = (   0.3125000  -0.3125000   0.9375000), wk =   0.0234375
        k(   55) = (  -0.3125000   0.5625000   0.3125000), wk =   0.0234375
        k(   56) = (   0.5625000  -0.3125000   1.1875000), wk =   0.0468750
        k(   57) = (   0.4375000  -0.1875000   1.0625000), wk =   0.0468750
        k(   58) = (  -0.3125000  -1.1875000   0.3125000), wk =   0.0234375
        k(   59) = (  -0.4375000   0.4375000   0.4375000), wk =   0.0078125
        k(   60) = (   0.4375000  -0.4375000   1.3125000), wk =   0.0234375

     Dense  grid:     8099 G-vectors     FFT dimensions: (  30,  30,  30)

     Smooth grid:     2891 G-vectors     FFT dimensions: (  20,  20,  20)

     Estimated max dynamical RAM per process >       1.73MB

     Estimated total allocated dynamical RAM >       6.94MB

     Initial potential from superposition of free atoms

     starting charge    7.99866, renormalised to    8.00000
     Starting wfc are    8 randomized atomic wfcs

     total cpu time spent up to now is        0.5 secs

     per-process dynamical memory:     8.6 Mb

     Self-consistent Calculation

     iteration #  1     ecut=    18.00 Ry     beta=0.70
     Davidson diagonalization with overlap
     ethr =  1.00E-02,  avg # of iterations =  2.0

     Threshold (ethr) on eigenvalues was too large:
     Diagonalizing with lowered threshold

     Davidson diagonalization with overlap
     ethr =  6.56E-04,  avg # of iterations =  1.0

     total cpu time spent up to now is        0.8 secs

     total energy              =     -19.18915221 Ry
     Harris-Foulkes estimate   =     -19.20085554 Ry
     estimated scf accuracy    <       0.05222354 Ry

     iteration #  2     ecut=    18.00 Ry     beta=0.70
     Davidson diagonalization with overlap
     ethr =  6.53E-04,  avg # of iterations =  1.0

     total cpu time spent up to now is        1.0 secs

     total energy              =     -19.19076215 Ry
     Harris-Foulkes estimate   =     -19.19093172 Ry
     estimated scf accuracy    <       0.00245348 Ry

     iteration #  3     ecut=    18.00 Ry     beta=0.70
     Davidson diagonalization with overlap
     ethr =  3.07E-05,  avg # of iterations =  1.9

     total cpu time spent up to now is        1.2 secs

     total energy              =     -19.19102841 Ry
     Harris-Foulkes estimate   =     -19.19104079 Ry
     estimated scf accuracy    <       0.00003900 Ry

     iteration #  4     ecut=    18.00 Ry     beta=0.70
     Davidson diagonalization with overlap
     ethr =  4.88E-07,  avg # of iterations =  2.8

     total cpu time spent up to now is        1.4 secs

     total energy              =     -19.19105210 Ry
     Harris-Foulkes estimate   =     -19.19105259 Ry
     estimated scf accuracy    <       0.00000213 Ry

     iteration #  5     ecut=    18.00 Ry     beta=0.70
     Davidson diagonalization with overlap
     ethr =  2.66E-08,  avg # of iterations =  2.2

     total cpu time spent up to now is        1.6 secs

     total energy              =     -19.19105255 Ry
     Harris-Foulkes estimate   =     -19.19105257 Ry
     estimated scf accuracy    <       0.00000005 Ry

     iteration #  6     ecut=    18.00 Ry     beta=0.70
     Davidson diagonalization with overlap
     ethr =  6.41E-10,  avg # of iterations =  2.7

     total cpu time spent up to now is        2.2 secs

     End of self-consistent calculation

          k =-0.0625 0.0625 0.0625 (   338 PWs)   bands (ev):

    -5.8470   5.2701   5.7218   5.7218

          k =-0.1875 0.1875-0.0625 (   353 PWs)   bands (ev):

    -5.5855   3.7752   4.9342   5.6041

          k =-0.3125 0.3125-0.1875 (   356 PWs)   bands (ev):

    -4.9530   1.5904   4.4525   5.1507

          k =-0.4375 0.4375-0.3125 (   360 PWs)   bands (ev):

    -4.0743  -0.2546   4.2371   4.7515

          k = 0.4375-0.4375 0.5625 (   360 PWs)   bands (ev):

    -3.6406  -0.9359   4.2840   4.5388

          k = 0.3125-0.3125 0.4375 (   357 PWs)   bands (ev):

    -4.3746   0.2901   4.5607   4.5644

          k = 0.1875-0.1875 0.3125 (   357 PWs)   bands (ev):

    -5.2009   2.3059   4.8335   5.0205

          k = 0.0625-0.0625 0.1875 (   344 PWs)   bands (ev):

    -5.7154   4.5191   5.3066   5.4566

          k =-0.0625 0.3125 0.0625 (   354 PWs)   bands (ev):

    -5.4531   3.6239   4.7613   4.8367

          k =-0.1875 0.4375-0.0625 (   357 PWs)   bands (ev):

    -4.9405   2.1460   3.8117   4.5836

          k =-0.3125 0.5625-0.1875 (   361 PWs)   bands (ev):

    -4.1162   0.3318   3.3188   4.1846

          k = 0.5625-0.3125 0.6875 (   365 PWs)   bands (ev):

    -3.3772  -0.8452   3.0330   4.0943

          k = 0.4375-0.1875 0.5625 (   363 PWs)   bands (ev):

    -3.8210  -0.1745   2.9652   4.3714

          k = 0.3125-0.0625 0.4375 (   359 PWs)   bands (ev):

    -4.6985   1.5106   3.2688   4.8664

          k = 0.1875 0.0625 0.3125 (   355 PWs)   bands (ev):

    -5.3259   2.9658   4.3699   5.2309

          k =-0.0625 0.5625 0.0625 (   355 PWs)   bands (ev):

    -4.5483   1.6372   3.6729   3.7915

          k =-0.1875 0.6875-0.0625 (   357 PWs)   bands (ev):

    -3.8135   0.4240   2.9059   3.4536

          k = 0.6875-0.1875 0.8125 (   365 PWs)   bands (ev):

    -2.9396  -0.7439   2.0856   3.4224

          k = 0.5625-0.0625 0.6875 (   367 PWs)   bands (ev):

    -3.0105  -0.6515   1.7435   3.7579

          k = 0.4375 0.0625 0.5625 (   362 PWs)   bands (ev):

    -3.8840   0.2874   2.3301   4.3288

          k = 0.3125 0.1875 0.4375 (   358 PWs)   bands (ev):

    -4.5883   0.9277   3.9186   4.7687

          k =-0.0625 0.8125 0.0625 (   362 PWs)   bands (ev):

    -3.1735  -0.4242   3.0000   3.2098

          k = 0.8125-0.0625 0.9375 (   363 PWs)   bands (ev):

    -2.2851  -1.3937   2.4593   2.9740

          k = 0.6875 0.0625 0.8125 (   368 PWs)   bands (ev):

    -2.3853  -1.2283   1.7509   3.2819

          k = 0.5625 0.1875 0.6875 (   365 PWs)   bands (ev):

    -3.1264  -0.8100   2.2769   3.8688

          k = 0.4375 0.3125 0.5625 (   365 PWs)   bands (ev):

    -3.7211  -0.6501   3.7429   4.4413

          k =-0.0625-0.9375 0.0625 (   358 PWs)   bands (ev):

    -2.3336  -1.4093   2.8653   3.0909

          k =-0.1875-0.8125-0.0625 (   359 PWs)   bands (ev):

    -3.0907  -0.4866   2.6122   3.1305

          k =-0.3125-0.6875-0.1875 (   364 PWs)   bands (ev):

    -3.5543  -0.2148   2.6635   3.7156

          k =-0.0625-0.6875 0.0625 (   358 PWs)   bands (ev):

    -3.9160   0.6015   3.2696   3.4452

          k =-0.1875-0.5625-0.0625 (   356 PWs)   bands (ev):

    -4.4339   1.3041   3.3148   3.9498

          k =-0.0625-0.4375 0.0625 (   351 PWs)   bands (ev):

    -5.0626   2.6549   4.2045   4.2380

          k =-0.1875 0.1875 0.1875 (   359 PWs)   bands (ev):

    -5.4567   3.0653   5.2891   5.2891

          k =-0.3125 0.3125 0.0625 (   360 PWs)   bands (ev):

    -5.0732   2.2298   3.8098   5.3039

          k =-0.4375 0.4375-0.0625 (   361 PWs)   bands (ev):

    -4.3429   0.8810   2.7523   4.8099

          k = 0.4375-0.4375 0.8125 (   367 PWs)   bands (ev):

    -3.4719  -0.5707   2.5955   4.2910

          k = 0.3125-0.3125 0.6875 (   365 PWs)   bands (ev):

    -3.4565  -0.5985   2.8863   3.9809

          k = 0.1875-0.1875 0.5625 (   358 PWs)   bands (ev):

    -4.3258   0.8777   3.4881   3.9586

          k =-0.1875 0.4375 0.1875 (   362 PWs)   bands (ev):

    -4.8221   1.5783   4.2947   4.3686

          k =-0.3125 0.5625 0.0625 (   360 PWs)   bands (ev):

    -4.2092   0.8110   2.8079   4.1762

          k = 0.5625-0.3125 0.9375 (   364 PWs)   bands (ev):

    -3.3393  -0.2739   2.0378   3.6234

          k = 0.4375-0.1875 0.8125 (   368 PWs)   bands (ev):

    -2.8651  -0.8715   2.0376   3.3190

          k = 0.3125-0.0625 0.6875 (   362 PWs)   bands (ev):

    -3.6164   0.1078   2.4535   3.4933

          k =-0.1875 0.6875 0.1875 (   360 PWs)   bands (ev):

    -3.7229   0.1667   2.7779   3.6344

          k = 0.6875-0.1875 1.0625 (   360 PWs)   bands (ev):

    -2.9368  -0.6238   2.2176   2.9702

          k = 0.5625-0.0625 0.9375 (   370 PWs)   bands (ev):

    -2.1496  -1.3667   1.9096   2.4820

          k = 0.4375 0.0625 0.8125 (   367 PWs)   bands (ev):

    -2.7386  -0.8260   1.8994   2.9459

          k =-0.1875-1.0625 0.1875 (   364 PWs)   bands (ev):

    -2.3075  -1.3432   2.0111   3.2986

          k =-0.3125-0.9375 0.0625 (   366 PWs)   bands (ev):

    -2.2092  -1.3750   2.1027   2.6899

          k =-0.1875-0.8125 0.1875 (   362 PWs)   bands (ev):

    -3.0320  -0.5851   2.2692   3.4117

          k =-0.3125 0.3125 0.3125 (   359 PWs)   bands (ev):

    -4.7174   0.9020   4.8821   4.8821

          k =-0.4375 0.4375 0.1875 (   360 PWs)   bands (ev):

    -4.2487   0.3309   3.4442   4.7953

          k = 0.4375-0.4375 1.0625 (   367 PWs)   bands (ev):

    -3.4750  -0.2070   1.9591   4.2285

          k = 0.3125-0.3125 0.9375 (   364 PWs)   bands (ev):

    -2.6734  -0.9780   1.6327   3.6942

          k =-0.3125 0.5625 0.3125 (   366 PWs)   bands (ev):

    -3.9430  -0.2150   3.7684   4.2458

          k = 0.5625-0.3125 1.1875 (   367 PWs)   bands (ev):

    -3.3376  -0.5763   2.4923   3.7838

          k = 0.4375-0.1875 1.0625 (   370 PWs)   bands (ev):

    -2.5381  -1.0459   1.7226   3.0883

          k =-0.3125-1.1875 0.3125 (   363 PWs)   bands (ev):

    -2.9875  -0.8535   2.1128   3.7920

          k =-0.4375 0.4375 0.4375 (   356 PWs)   bands (ev):

    -3.8514  -0.7059   4.6643   4.6643

          k = 0.4375-0.4375 1.3125 (   365 PWs)   bands (ev):

    -3.5097  -0.8813   3.4592   4.4029

     highest occupied level (ev):     5.7218

!    total energy              =     -19.19105258 Ry
     Harris-Foulkes estimate   =     -19.19105258 Ry
     estimated scf accuracy    <          8.0E-09 Ry

     The total energy is the sum of the following terms:

     one-electron contribution =       4.81951977 Ry
     hartree contribution      =       1.14877869 Ry
     xc contribution           =      -8.57501990 Ry
     ewald contribution        =     -16.58433113 Ry

     convergence has been achieved in   6 iterations

     Writing output data file silicon.10.394.save

     init_run     :      0.29s CPU      0.32s WALL (       1 calls)
     electrons    :      1.28s CPU      1.74s WALL (       1 calls)

     Called by init_run:
     wfcinit      :      0.07s CPU      0.08s WALL (       1 calls)
     potinit      :      0.01s CPU      0.02s WALL (       1 calls)

     Called by electrons:
     c_bands      :      0.87s CPU      1.20s WALL (       7 calls)
     sum_band     :      0.27s CPU      0.34s WALL (       7 calls)
     v_of_rho     :      0.06s CPU      0.09s WALL (       7 calls)
     newd         :      0.08s CPU      0.10s WALL (       7 calls)
     mix_rho      :      0.01s CPU      0.01s WALL (       7 calls)

     Called by c_bands:
     init_us_2    :      0.06s CPU      0.06s WALL (     900 calls)
     cegterg      :      0.73s CPU      1.03s WALL (     420 calls)

     Called by sum_band:
     sum_band:bec :      0.00s CPU      0.01s WALL (     420 calls)
     addusdens    :      0.09s CPU      0.11s WALL (       7 calls)

     Called by *egterg:
     h_psi        :      0.53s CPU      0.67s WALL (    1296 calls)
     s_psi        :      0.06s CPU      0.06s WALL (    1296 calls)
     g_psi        :      0.00s CPU      0.00s WALL (     816 calls)
     cdiaghg      :      0.08s CPU      0.11s WALL (    1176 calls)

     Called by h_psi:
     h_psi:pot    :      0.53s CPU      0.67s WALL (    1296 calls)
     h_psi:calbec :      0.10s CPU      0.14s WALL (    1296 calls)
     vloc_psi     :      0.37s CPU      0.46s WALL (    1296 calls)
     add_vuspsi   :      0.06s CPU      0.06s WALL (    1296 calls)

     General routines
     calbec       :      0.15s CPU      0.21s WALL (    1716 calls)
     fft          :      0.06s CPU      0.12s WALL (     112 calls)
     ffts         :      0.00s CPU      0.00s WALL (      14 calls)
     fftw         :      0.37s CPU      0.47s WALL (   11606 calls)
     interpolate  :      0.01s CPU      0.01s WALL (      14 calls)
     davcio       :      0.00s CPU      0.00s WALL (      60 calls)

     Parallel routines
     fft_scatter  :      0.23s CPU      0.37s WALL (   11732 calls)

     PWSCF        :     1.84s CPU         2.50s WALL


   This run was terminated on:  10: 3:20  10Nov2017            

=------------------------------------------------------------------------------=
   JOB DONE.
=------------------------------------------------------------------------------=
