
     Program PHONON v.6.1 (svn rev. 13369) starts on 10Nov2017 at 15:35:37 

     This program is part of the open-source Quantum ESPRESSO suite
     for quantum simulation of materials; please cite
         "P. Giannozzi et al., J. Phys.:Condens. Matter 21 395502 (2009);
          URL http://www.quantum-espresso.org", 
     in publications or presentations arising from this work. More details at
     http://www.quantum-espresso.org/quote

     Parallel version (MPI), running on     4 processors
     R & G space division:  proc/nbgrp/npool/nimage =       4

     Reading data from directory:
     ./silicon.10.300.save

   Info: using nr1, nr2, nr3 values from input

   Info: using nr1, nr2, nr3 values from input

     IMPORTANT: XC functional enforced from input :
     Exchange-correlation      = SLA  PW   PBE  PBE ( 1  4  3  4 0 0)
     Any further DFT definition will be discarded
     Please, verify this is what you really want


     Parallelization info
     --------------------
     sticks:   dense  smooth     PW     G-vecs:    dense   smooth      PW
     Min         217     108     37                 4288     1495     284
     Max         219     109     38                 4289     1498     285
     Sum         871     433    151                17153     5985    1139



     Dynamical matrices for ( 4, 4, 4)  uniform grid of q-points
     (   8q-points):
       N         xq(1)         xq(2)         xq(3) 
       1   0.000000000   0.000000000   0.000000000
       2  -0.250000000   0.250000000  -0.250000000
       3   0.500000000  -0.500000000   0.500000000
       4   0.000000000   0.500000000   0.000000000
       5   0.750000000  -0.250000000   0.750000000
       6   0.500000000   0.000000000   0.500000000
       7   0.000000000  -1.000000000   0.000000000
       8  -0.500000000  -1.000000000   0.000000000

     Calculation of q =    0.0000000   0.0000000   0.0000000

                                                                                

     bravais-lattice index     =            2
     lattice parameter (alat)  =      10.3000  a.u.
     unit-cell volume          =     273.1818 (a.u.)^3
     number of atoms/cell      =            2
     number of atomic types    =            1
     kinetic-energy cut-off    =      30.0000  Ry
     charge density cut-off    =     240.0000  Ry
     convergence threshold     =      1.0E-12
     beta                      =       0.7000
     number of iterations used =            4
     Exchange-correlation      = SLA  PW   PBE  PBE ( 1  4  3  4 0 0)


     celldm(1)=   10.30000  celldm(2)=    0.00000  celldm(3)=    0.00000
     celldm(4)=    0.00000  celldm(5)=    0.00000  celldm(6)=    0.00000

     crystal axes: (cart. coord. in units of alat)
               a(1) = ( -0.5000  0.0000  0.5000 )  
               a(2) = (  0.0000  0.5000  0.5000 )  
               a(3) = ( -0.5000  0.5000  0.0000 )  

     reciprocal axes: (cart. coord. in units 2 pi/alat)
               b(1) = ( -1.0000 -1.0000  1.0000 )  
               b(2) = (  1.0000  1.0000  1.0000 )  
               b(3) = ( -1.0000  1.0000 -1.0000 )  


     Atoms inside the unit cell: 

     Cartesian axes

     site n.  atom      mass           positions (alat units)
        1     Si  28.0860   tau(    1) = (    0.00000    0.00000    0.00000  )
        2     Si  28.0860   tau(    2) = (    0.25000    0.25000    0.25000  )

     Computing dynamical matrix for 
                    q = (   0.0000000   0.0000000   0.0000000 )

     49 Sym.Ops. (with q -> -q+G )


     G cutoff =  644.9499  (   4288 G-vectors)     FFT grid: ( 36, 36, 36)
     G cutoff =  322.4749  (   1497 G-vectors)  smooth grid: ( 25, 25, 25)
     number of k points=    10

     PseudoPot. # 1 for Si read from file:
     /home/s1333534/quantum_espresso/qe-6.1/pseudo/si_pbe_v1.uspp.F.UPF.txt
     MD5 check sum: a056efeee980c13900f22a371efd63c1
     Pseudo is Ultrasoft + core correction, Zval =  4.0
     Generated by new atomic code, or converted to UPF format
     Using radial grid of  899 points,  6 beta functions with: 
                l(1) =   0
                l(2) =   0
                l(3) =   1
                l(4) =   1
                l(5) =   2
                l(6) =   2
     Q(r) pseudized with  8 coefficients,  rinner =    0.900   0.900   0.900
                                                       0.900   0.900

     Mode symmetry, O_h (m-3m)  point group:


     Electric field:
     Dielectric constant
     Born effective charges in two ways 


     Atomic displacements:
     There are   2 irreducible representations

     Representation     1      3 modes -T_2g G_25' G_5+  To be done

     Representation     2      3 modes -T_1u G_15  G_4-  To be done



     Alpha used in Ewald sum =   2.5000
     PHONON       :     0.93s CPU         1.32s WALL


     Electric Fields Calculation

      iter #   1 total cpu time :     2.3 secs   av.it.:   5.7
      thresh= 1.000E-02 alpha_mix =  0.700 |ddv_scf|^2 =  1.335E-07

      iter #   2 total cpu time :     3.0 secs   av.it.:  11.7
      thresh= 3.654E-05 alpha_mix =  0.700 |ddv_scf|^2 =  7.758E-09

      iter #   3 total cpu time :     3.6 secs   av.it.:  11.4
      thresh= 8.808E-06 alpha_mix =  0.700 |ddv_scf|^2 =  5.116E-10

      iter #   4 total cpu time :     4.2 secs   av.it.:  10.3
      thresh= 2.262E-06 alpha_mix =  0.700 |ddv_scf|^2 =  3.296E-12

      iter #   5 total cpu time :     4.8 secs   av.it.:  11.1
      thresh= 1.816E-07 alpha_mix =  0.700 |ddv_scf|^2 =  3.288E-15

     End of electric fields calculation

          Dielectric constant in cartesian axis 

          (      13.901180386       0.000000000       0.000000000 )
          (       0.000000000      13.901180386      -0.000000000 )
          (       0.000000000      -0.000000000      13.901180386 )

          Effective charges (d Force / dE) in cartesian axis

           atom      1   Si 
      Ex  (       -0.03910        0.00000       -0.00000 )
      Ey  (        0.00000       -0.03910       -0.00000 )
      Ez  (        0.00000       -0.00000       -0.03910 )
           atom      2   Si 
      Ex  (       -0.03910        0.00000       -0.00000 )
      Ey  (        0.00000       -0.03910        0.00000 )
      Ez  (       -0.00000        0.00000       -0.03910 )


     Representation #  1 modes #   1  2  3

     Self-consistent Calculation

      iter #   1 total cpu time :     5.9 secs   av.it.:   5.1
      thresh= 1.000E-02 alpha_mix =  0.700 |ddv_scf|^2 =  2.355E-08

      iter #   2 total cpu time :     6.6 secs   av.it.:  11.6
      thresh= 1.535E-05 alpha_mix =  0.700 |ddv_scf|^2 =  9.665E-10

      iter #   3 total cpu time :     7.3 secs   av.it.:  11.1
      thresh= 3.109E-06 alpha_mix =  0.700 |ddv_scf|^2 =  6.572E-11

      iter #   4 total cpu time :     7.9 secs   av.it.:  10.1
      thresh= 8.107E-07 alpha_mix =  0.700 |ddv_scf|^2 =  1.599E-13

     End of self-consistent calculation

     Convergence has been achieved 


     Representation #  2 modes #   4  5  6

     Self-consistent Calculation

      iter #   1 total cpu time :     8.8 secs   av.it.:   5.2
      thresh= 1.000E-02 alpha_mix =  0.700 |ddv_scf|^2 =  1.859E-08

      iter #   2 total cpu time :     9.6 secs   av.it.:  11.6
      thresh= 1.363E-05 alpha_mix =  0.700 |ddv_scf|^2 =  1.095E-09

      iter #   3 total cpu time :    10.5 secs   av.it.:  11.1
      thresh= 3.310E-06 alpha_mix =  0.700 |ddv_scf|^2 =  6.778E-11

      iter #   4 total cpu time :    11.1 secs   av.it.:  11.3
      thresh= 8.233E-07 alpha_mix =  0.700 |ddv_scf|^2 =  2.611E-13

     End of self-consistent calculation

     Convergence has been achieved 

     Number of q in the star =    1
     List of q in the star:
          1   0.000000000   0.000000000   0.000000000

          Dielectric constant in cartesian axis 

          (      13.901180386       0.000000000       0.000000000 )
          (       0.000000000      13.901180386      -0.000000000 )
          (       0.000000000      -0.000000000      13.901180386 )

          Effective charges (d Force / dE) in cartesian axis

           atom      1   Si 
      Ex  (       -0.03910        0.00000       -0.00000 )
      Ey  (        0.00000       -0.03910       -0.00000 )
      Ez  (        0.00000       -0.00000       -0.03910 )
           atom      2   Si 
      Ex  (       -0.03910        0.00000       -0.00000 )
      Ey  (        0.00000       -0.03910        0.00000 )
      Ez  (       -0.00000        0.00000       -0.03910 )

          Effective charges (d P / du) in cartesian axis 

           atom      1   Si 
      Px  (       -0.07205       -0.00000        0.00000 )
      Py  (       -0.00000       -0.07205        0.00000 )
      Pz  (        0.00000        0.00000       -0.07205 )
           atom      2   Si 
      Px  (       -0.07205        0.00000        0.00000 )
      Py  (        0.00000       -0.07205        0.00000 )
      Pz  (        0.00000       -0.00000       -0.07205 )

     Diagonalizing the dynamical matrix

     q = (    0.000000000   0.000000000   0.000000000 ) 

 **************************************************************************
     freq (    1) =      -0.468391 [THz] =     -15.623846 [cm-1]
     freq (    2) =      -0.468391 [THz] =     -15.623846 [cm-1]
     freq (    3) =      -0.468391 [THz] =     -15.623846 [cm-1]
     freq (    4) =      15.213391 [THz] =     507.464098 [cm-1]
     freq (    5) =      15.213391 [THz] =     507.464098 [cm-1]
     freq (    6) =      15.213391 [THz] =     507.464098 [cm-1]
 **************************************************************************

     Mode symmetry, O_h (m-3m)  point group:

     freq (  1 -  3) =        -15.6  [cm-1]   --> T_1u G_15  G_4- I  
     freq (  4 -  6) =        507.5  [cm-1]   --> T_2g G_25' G_5+ R  

     Calculation of q =   -0.2500000   0.2500000  -0.2500000

   Info: using nr1, nr2, nr3 values from input

   Info: using nr1, nr2, nr3 values from input

     Parallelization info
     --------------------
     sticks:   dense  smooth     PW     G-vecs:    dense   smooth      PW
     Min         217     108     37                 4287     1495     309
     Max         218     109     38                 4289     1498     312
     Sum         871     433    151                17153     5985    1243



     bravais-lattice index     =            2
     lattice parameter (alat)  =      10.3000  a.u.
     unit-cell volume          =     273.1818 (a.u.)^3
     number of atoms/cell      =            2
     number of atomic types    =            1
     number of electrons       =         8.00
     number of Kohn-Sham states=            4
     kinetic-energy cutoff     =      30.0000  Ry
     charge density cutoff     =     240.0000  Ry
     Exchange-correlation      = SLA  PW   PBE  PBE ( 1  4  3  4 0 0)

     celldm(1)=  10.300000  celldm(2)=   0.000000  celldm(3)=   0.000000
     celldm(4)=   0.000000  celldm(5)=   0.000000  celldm(6)=   0.000000

     crystal axes: (cart. coord. in units of alat)
               a(1) = (  -0.500000   0.000000   0.500000 )  
               a(2) = (   0.000000   0.500000   0.500000 )  
               a(3) = (  -0.500000   0.500000   0.000000 )  

     reciprocal axes: (cart. coord. in units 2 pi/alat)
               b(1) = ( -1.000000 -1.000000  1.000000 )  
               b(2) = (  1.000000  1.000000  1.000000 )  
               b(3) = ( -1.000000  1.000000 -1.000000 )  


     PseudoPot. # 1 for Si read from file:
     /home/s1333534/quantum_espresso/qe-6.1/pseudo/si_pbe_v1.uspp.F.UPF.txt
     MD5 check sum: a056efeee980c13900f22a371efd63c1
     Pseudo is Ultrasoft + core correction, Zval =  4.0
     Generated by new atomic code, or converted to UPF format
     Using radial grid of  899 points,  6 beta functions with: 
                l(1) =   0
                l(2) =   0
                l(3) =   1
                l(4) =   1
                l(5) =   2
                l(6) =   2
     Q(r) pseudized with  8 coefficients,  rinner =    0.900   0.900   0.900
                                                       0.900   0.900

     atomic species   valence    mass     pseudopotential
        Si             4.00    28.08600     Si( 1.00)

     48 Sym. Ops., with inversion, found



   Cartesian axes

     site n.     atom                  positions (alat units)
         1           Si  tau(   1) = (   0.0000000   0.0000000   0.0000000  )
         2           Si  tau(   2) = (   0.2500000   0.2500000   0.2500000  )

     number of k points=   120

     Number of k-points >= 100: set verbosity='high' to print them.

     Dense  grid:    17153 G-vectors     FFT dimensions: (  36,  36,  36)

     Smooth grid:     5985 G-vectors     FFT dimensions: (  25,  25,  25)

     Estimated max dynamical RAM per process >       1.51MB

     Estimated total allocated dynamical RAM >       6.05MB

     The potential is recalculated from file :
     ./_ph0/silicon.10.300.save/charge-density.dat

     Starting wfc are    8 atomic wfcs

     Band Structure Calculation
     Davidson diagonalization with overlap

     ethr =  1.25E-10,  avg # of iterations = 12.2

     total cpu time spent up to now is        1.4 secs

     End of band structure calculation

     Number of k-points >= 100: set verbosity='high' to print the bands.

     highest occupied level (ev):     5.7939

     Writing output data file silicon.10.300.save

                                                                                

     bravais-lattice index     =            2
     lattice parameter (alat)  =      10.3000  a.u.
     unit-cell volume          =     273.1818 (a.u.)^3
     number of atoms/cell      =            2
     number of atomic types    =            1
     kinetic-energy cut-off    =      30.0000  Ry
     charge density cut-off    =     240.0000  Ry
     convergence threshold     =      1.0E-12
     beta                      =       0.7000
     number of iterations used =            4
     Exchange-correlation      = SLA  PW   PBE  PBE ( 1  4  3  4 0 0)


     celldm(1)=   10.30000  celldm(2)=    0.00000  celldm(3)=    0.00000
     celldm(4)=    0.00000  celldm(5)=    0.00000  celldm(6)=    0.00000

     crystal axes: (cart. coord. in units of alat)
               a(1) = ( -0.5000  0.0000  0.5000 )  
               a(2) = (  0.0000  0.5000  0.5000 )  
               a(3) = ( -0.5000  0.5000  0.0000 )  

     reciprocal axes: (cart. coord. in units 2 pi/alat)
               b(1) = ( -1.0000 -1.0000  1.0000 )  
               b(2) = (  1.0000  1.0000  1.0000 )  
               b(3) = ( -1.0000  1.0000 -1.0000 )  


     Atoms inside the unit cell: 

     Cartesian axes

     site n.  atom      mass           positions (alat units)
        1     Si  28.0860   tau(    1) = (    0.00000    0.00000    0.00000  )
        2     Si  28.0860   tau(    2) = (    0.25000    0.25000    0.25000  )

     Computing dynamical matrix for 
                    q = (  -0.2500000   0.2500000  -0.2500000 )

      6 Sym.Ops. (no q -> -q+G )


     G cutoff =  644.9499  (   4288 G-vectors)     FFT grid: ( 36, 36, 36)
     G cutoff =  322.4749  (   1496 G-vectors)  smooth grid: ( 25, 25, 25)
     number of k points=   120

     PseudoPot. # 1 for Si read from file:
     /home/s1333534/quantum_espresso/qe-6.1/pseudo/si_pbe_v1.uspp.F.UPF.txt
     MD5 check sum: a056efeee980c13900f22a371efd63c1
     Pseudo is Ultrasoft + core correction, Zval =  4.0
     Generated by new atomic code, or converted to UPF format
     Using radial grid of  899 points,  6 beta functions with: 
                l(1) =   0
                l(2) =   0
                l(3) =   1
                l(4) =   1
                l(5) =   2
                l(6) =   2
     Q(r) pseudized with  8 coefficients,  rinner =    0.900   0.900   0.900
                                                       0.900   0.900

     Mode symmetry, C_3v (3m)   point group:


     Atomic displacements:
     There are   4 irreducible representations

     Representation     1      1 modes -A_1  L_1  To be done

     Representation     2      1 modes -A_1  L_1  To be done

     Representation     3      2 modes -E    L_3  To be done

     Representation     4      2 modes -E    L_3  To be done



     Alpha used in Ewald sum =   2.5000
     PHONON       :    10.56s CPU        14.76s WALL



     Representation #  1 mode #   1

     Self-consistent Calculation

      iter #   1 total cpu time :    15.2 secs   av.it.:   5.9
      thresh= 1.000E-02 alpha_mix =  0.700 |ddv_scf|^2 =  4.303E-04

      iter #   2 total cpu time :    15.8 secs   av.it.:   9.0
      thresh= 2.074E-03 alpha_mix =  0.700 |ddv_scf|^2 =  6.535E-03

      iter #   3 total cpu time :    16.4 secs   av.it.:   6.9
      thresh= 8.084E-03 alpha_mix =  0.700 |ddv_scf|^2 =  2.716E-07

      iter #   4 total cpu time :    17.0 secs   av.it.:   9.6
      thresh= 5.212E-05 alpha_mix =  0.700 |ddv_scf|^2 =  1.779E-08

      iter #   5 total cpu time :    17.6 secs   av.it.:   9.5
      thresh= 1.334E-05 alpha_mix =  0.700 |ddv_scf|^2 =  3.325E-10

      iter #   6 total cpu time :    18.2 secs   av.it.:   9.7
      thresh= 1.823E-06 alpha_mix =  0.700 |ddv_scf|^2 =  1.038E-09

      iter #   7 total cpu time :    18.8 secs   av.it.:   7.6
      thresh= 3.222E-06 alpha_mix =  0.700 |ddv_scf|^2 =  3.911E-11

      iter #   8 total cpu time :    19.4 secs   av.it.:   9.2
      thresh= 6.254E-07 alpha_mix =  0.700 |ddv_scf|^2 =  5.034E-13

     End of self-consistent calculation

     Convergence has been achieved 


     Representation #  2 mode #   2

     Self-consistent Calculation

      iter #   1 total cpu time :    20.0 secs   av.it.:   5.9
      thresh= 1.000E-02 alpha_mix =  0.700 |ddv_scf|^2 =  4.303E-04

      iter #   2 total cpu time :    20.6 secs   av.it.:   9.0
      thresh= 2.074E-03 alpha_mix =  0.700 |ddv_scf|^2 =  6.535E-03

      iter #   3 total cpu time :    21.0 secs   av.it.:   6.9
      thresh= 8.084E-03 alpha_mix =  0.700 |ddv_scf|^2 =  2.716E-07

      iter #   4 total cpu time :    21.7 secs   av.it.:   9.6
      thresh= 5.212E-05 alpha_mix =  0.700 |ddv_scf|^2 =  1.779E-08

      iter #   5 total cpu time :    22.3 secs   av.it.:   9.5
      thresh= 1.334E-05 alpha_mix =  0.700 |ddv_scf|^2 =  3.325E-10

      iter #   6 total cpu time :    22.9 secs   av.it.:   9.7
      thresh= 1.823E-06 alpha_mix =  0.700 |ddv_scf|^2 =  1.038E-09

      iter #   7 total cpu time :    23.4 secs   av.it.:   7.6
      thresh= 3.222E-06 alpha_mix =  0.700 |ddv_scf|^2 =  3.911E-11

      iter #   8 total cpu time :    24.0 secs   av.it.:   9.2
      thresh= 6.254E-07 alpha_mix =  0.700 |ddv_scf|^2 =  5.034E-13

     End of self-consistent calculation

     Convergence has been achieved 


     Representation #  3 modes #   3  4

     Self-consistent Calculation

      iter #   1 total cpu time :    24.9 secs   av.it.:   5.2
      thresh= 1.000E-02 alpha_mix =  0.700 |ddv_scf|^2 =  6.635E-08

      iter #   2 total cpu time :    26.2 secs   av.it.:  11.4
      thresh= 2.576E-05 alpha_mix =  0.700 |ddv_scf|^2 =  4.266E-09

      iter #   3 total cpu time :    27.5 secs   av.it.:  11.1
      thresh= 6.531E-06 alpha_mix =  0.700 |ddv_scf|^2 =  2.259E-10

      iter #   4 total cpu time :    28.6 secs   av.it.:  11.0
      thresh= 1.503E-06 alpha_mix =  0.700 |ddv_scf|^2 =  8.529E-13

     End of self-consistent calculation

     Convergence has been achieved 


     Representation #  4 modes #   5  6

     Self-consistent Calculation

      iter #   1 total cpu time :    29.6 secs   av.it.:   5.2
      thresh= 1.000E-02 alpha_mix =  0.700 |ddv_scf|^2 =  6.636E-08

      iter #   2 total cpu time :    30.8 secs   av.it.:  11.4
      thresh= 2.576E-05 alpha_mix =  0.700 |ddv_scf|^2 =  4.265E-09

      iter #   3 total cpu time :    32.1 secs   av.it.:  11.2
      thresh= 6.530E-06 alpha_mix =  0.700 |ddv_scf|^2 =  2.258E-10

      iter #   4 total cpu time :    33.2 secs   av.it.:  11.0
      thresh= 1.503E-06 alpha_mix =  0.700 |ddv_scf|^2 =  8.564E-13

     End of self-consistent calculation

     Convergence has been achieved 

     Number of q in the star =    8
     List of q in the star:
          1  -0.250000000   0.250000000  -0.250000000
          2   0.250000000  -0.250000000  -0.250000000
          3   0.250000000  -0.250000000   0.250000000
          4   0.250000000   0.250000000   0.250000000
          5  -0.250000000  -0.250000000  -0.250000000
          6  -0.250000000  -0.250000000   0.250000000
          7  -0.250000000   0.250000000   0.250000000
          8   0.250000000   0.250000000  -0.250000000

     Diagonalizing the dynamical matrix

     q = (   -0.250000000   0.250000000  -0.250000000 ) 

 **************************************************************************
     freq (    1) =       2.766953 [THz] =      92.295620 [cm-1]
     freq (    2) =       2.766953 [THz] =      92.295620 [cm-1]
     freq (    3) =       6.798418 [THz] =     226.770804 [cm-1]
     freq (    4) =      14.361793 [THz] =     479.057846 [cm-1]
     freq (    5) =      14.652037 [THz] =     488.739352 [cm-1]
     freq (    6) =      14.652037 [THz] =     488.739352 [cm-1]
 **************************************************************************

     Mode symmetry, C_3v (3m)   point group:

     freq (  1 -  2) =         92.3  [cm-1]   --> E    L_3           
     freq (  3 -  3) =        226.8  [cm-1]   --> A_1  L_1           
     freq (  4 -  4) =        479.1  [cm-1]   --> A_1  L_1           
     freq (  5 -  6) =        488.7  [cm-1]   --> E    L_3           

     Calculation of q =    0.5000000  -0.5000000   0.5000000

   Info: using nr1, nr2, nr3 values from input

   Info: using nr1, nr2, nr3 values from input

     Parallelization info
     --------------------
     sticks:   dense  smooth     PW     G-vecs:    dense   smooth      PW
     Min         217     108     40                 4288     1495     351
     Max         219     109     41                 4289     1498     354
     Sum         871     433    163                17153     5985    1411



     bravais-lattice index     =            2
     lattice parameter (alat)  =      10.3000  a.u.
     unit-cell volume          =     273.1818 (a.u.)^3
     number of atoms/cell      =            2
     number of atomic types    =            1
     number of electrons       =         8.00
     number of Kohn-Sham states=            4
     kinetic-energy cutoff     =      30.0000  Ry
     charge density cutoff     =     240.0000  Ry
     Exchange-correlation      = SLA  PW   PBE  PBE ( 1  4  3  4 0 0)

     celldm(1)=  10.300000  celldm(2)=   0.000000  celldm(3)=   0.000000
     celldm(4)=   0.000000  celldm(5)=   0.000000  celldm(6)=   0.000000

     crystal axes: (cart. coord. in units of alat)
               a(1) = (  -0.500000   0.000000   0.500000 )  
               a(2) = (   0.000000   0.500000   0.500000 )  
               a(3) = (  -0.500000   0.500000   0.000000 )  

     reciprocal axes: (cart. coord. in units 2 pi/alat)
               b(1) = ( -1.000000 -1.000000  1.000000 )  
               b(2) = (  1.000000  1.000000  1.000000 )  
               b(3) = ( -1.000000  1.000000 -1.000000 )  


     PseudoPot. # 1 for Si read from file:
     /home/s1333534/quantum_espresso/qe-6.1/pseudo/si_pbe_v1.uspp.F.UPF.txt
     MD5 check sum: a056efeee980c13900f22a371efd63c1
     Pseudo is Ultrasoft + core correction, Zval =  4.0
     Generated by new atomic code, or converted to UPF format
     Using radial grid of  899 points,  6 beta functions with: 
                l(1) =   0
                l(2) =   0
                l(3) =   1
                l(4) =   1
                l(5) =   2
                l(6) =   2
     Q(r) pseudized with  8 coefficients,  rinner =    0.900   0.900   0.900
                                                       0.900   0.900

     atomic species   valence    mass     pseudopotential
        Si             4.00    28.08600     Si( 1.00)

     48 Sym. Ops., with inversion, found



   Cartesian axes

     site n.     atom                  positions (alat units)
         1           Si  tau(   1) = (   0.0000000   0.0000000   0.0000000  )
         2           Si  tau(   2) = (   0.2500000   0.2500000   0.2500000  )

     number of k points=    60
                       cart. coord. in units 2pi/alat
        k(    1) = (  -0.1250000   0.1250000   0.1250000), wk =   0.0468750
        k(    2) = (   0.3750000  -0.3750000   0.6250000), wk =   0.0000000
        k(    3) = (  -0.3750000   0.3750000  -0.1250000), wk =   0.0468750
        k(    4) = (   0.1250000  -0.1250000   0.3750000), wk =   0.0000000
        k(    5) = (   0.3750000  -0.3750000   0.6250000), wk =   0.0468750
        k(    6) = (   0.8750000  -0.8750000   1.1250000), wk =   0.0000000
        k(    7) = (   0.1250000  -0.1250000   0.3750000), wk =   0.0468750
        k(    8) = (   0.6250000  -0.6250000   0.8750000), wk =   0.0000000
        k(    9) = (  -0.1250000   0.6250000   0.1250000), wk =   0.0937500
        k(   10) = (   0.3750000   0.1250000   0.6250000), wk =   0.0000000
        k(   11) = (   0.6250000  -0.1250000   0.8750000), wk =   0.0937500
        k(   12) = (   1.1250000  -0.6250000   1.3750000), wk =   0.0000000
        k(   13) = (   0.3750000   0.1250000   0.6250000), wk =   0.0937500
        k(   14) = (   0.8750000  -0.3750000   1.1250000), wk =   0.0000000
        k(   15) = (  -0.1250000  -0.8750000   0.1250000), wk =   0.0937500
        k(   16) = (   0.3750000  -1.3750000   0.6250000), wk =   0.0000000
        k(   17) = (  -0.3750000   0.3750000   0.3750000), wk =   0.0468750
        k(   18) = (   0.1250000  -0.1250000   0.8750000), wk =   0.0000000
        k(   19) = (   0.3750000  -0.3750000   1.1250000), wk =   0.0468750
        k(   20) = (   0.8750000  -0.8750000   1.6250000), wk =   0.0000000
        k(   21) = (   0.1250000  -0.1250000   0.1250000), wk =   0.0156250
        k(   22) = (   0.6250000  -0.6250000   0.6250000), wk =   0.0000000
        k(   23) = (  -0.3750000  -0.3750000  -0.1250000), wk =   0.0937500
        k(   24) = (   0.1250000  -0.8750000   0.3750000), wk =   0.0000000
        k(   25) = (  -0.1250000  -0.3750000   0.3750000), wk =   0.0468750
        k(   26) = (   0.3750000  -0.8750000   0.8750000), wk =   0.0000000
        k(   27) = (   0.3750000   0.3750000   0.6250000), wk =   0.0937500
        k(   28) = (   0.8750000  -0.1250000   1.1250000), wk =   0.0000000
        k(   29) = (   0.6250000   0.3750000  -0.3750000), wk =   0.0468750
        k(   30) = (   1.1250000  -0.1250000   0.1250000), wk =   0.0000000
        k(   31) = (   0.1250000   0.1250000   0.3750000), wk =   0.0937500
        k(   32) = (   0.6250000  -0.3750000   0.8750000), wk =   0.0000000
        k(   33) = (   0.3750000   0.1250000  -0.1250000), wk =   0.0468750
        k(   34) = (   0.8750000  -0.3750000   0.3750000), wk =   0.0000000
        k(   35) = (  -0.1250000  -0.6250000  -0.1250000), wk =   0.0468750
        k(   36) = (   0.3750000  -1.1250000   0.3750000), wk =   0.0000000
        k(   37) = (   0.1250000  -0.6250000   0.1250000), wk =   0.0468750
        k(   38) = (   0.6250000  -1.1250000   0.6250000), wk =   0.0000000
        k(   39) = (   0.6250000   0.1250000   0.8750000), wk =   0.0937500
        k(   40) = (   1.1250000  -0.3750000   1.3750000), wk =   0.0000000
        k(   41) = (  -0.8750000   0.1250000   0.6250000), wk =   0.0937500
        k(   42) = (  -0.3750000  -0.3750000   1.1250000), wk =   0.0000000
        k(   43) = (   0.8750000   0.1250000  -0.6250000), wk =   0.0937500
        k(   44) = (   1.3750000  -0.3750000  -0.1250000), wk =   0.0000000
        k(   45) = (   0.3750000  -0.1250000   0.6250000), wk =   0.0937500
        k(   46) = (   0.8750000  -0.6250000   1.1250000), wk =   0.0000000
        k(   47) = (  -0.6250000  -0.1250000   0.3750000), wk =   0.0937500
        k(   48) = (  -0.1250000  -0.6250000   0.8750000), wk =   0.0000000
        k(   49) = (   0.6250000  -0.1250000  -0.3750000), wk =   0.0937500
        k(   50) = (   1.1250000  -0.6250000   0.1250000), wk =   0.0000000
        k(   51) = (  -0.1250000   0.8750000  -0.1250000), wk =   0.0468750
        k(   52) = (   0.3750000   0.3750000   0.3750000), wk =   0.0000000
        k(   53) = (   0.1250000   0.8750000   0.1250000), wk =   0.0468750
        k(   54) = (   0.6250000   0.3750000   0.6250000), wk =   0.0000000
        k(   55) = (   0.3750000  -0.3750000   0.3750000), wk =   0.0156250
        k(   56) = (   0.8750000  -0.8750000   0.8750000), wk =   0.0000000
        k(   57) = (   0.3750000   0.3750000   1.1250000), wk =   0.0937500
        k(   58) = (   0.8750000  -0.1250000   1.6250000), wk =   0.0000000
        k(   59) = (   1.1250000   0.3750000  -0.3750000), wk =   0.0468750
        k(   60) = (   1.6250000  -0.1250000   0.1250000), wk =   0.0000000

     Dense  grid:    17153 G-vectors     FFT dimensions: (  36,  36,  36)

     Smooth grid:     5985 G-vectors     FFT dimensions: (  25,  25,  25)

     Estimated max dynamical RAM per process >       1.51MB

     Estimated total allocated dynamical RAM >       6.05MB

     The potential is recalculated from file :
     ./_ph0/silicon.10.300.save/charge-density.dat

     Starting wfc are    8 atomic wfcs

     Band Structure Calculation
     Davidson diagonalization with overlap

     ethr =  1.25E-10,  avg # of iterations = 12.2

     total cpu time spent up to now is        2.4 secs

     End of band structure calculation

          k =-0.1250 0.1250 0.1250 (   752 PWs)   bands (ev):

    -5.6021   4.4848   5.7939   5.7939

          k = 0.3750-0.3750 0.6250 (   759 PWs)   bands (ev):

    -3.4146  -0.6211   3.8175   4.5326

          k =-0.3750 0.3750-0.1250 (   757 PWs)   bands (ev):

    -4.5668   1.4769   3.7922   5.3114

          k = 0.1250-0.1250 0.3750 (   765 PWs)   bands (ev):

    -5.0699   2.8646   4.7764   4.8458

          k = 0.3750-0.3750 0.6250 (   759 PWs)   bands (ev):

    -3.4146  -0.6211   3.8175   4.5326

          k = 0.8750-0.8750 1.1250 (   752 PWs)   bands (ev):

    -5.6021   4.4848   5.7939   5.7939

          k = 0.1250-0.1250 0.3750 (   765 PWs)   bands (ev):

    -5.0699   2.8646   4.7764   4.8458

          k = 0.6250-0.6250 0.8750 (   757 PWs)   bands (ev):

    -4.5668   1.4769   3.7922   5.3114

          k =-0.1250 0.6250 0.1250 (   760 PWs)   bands (ev):

    -4.0301   1.1512   3.4386   3.8954

          k = 0.3750 0.1250 0.6250 (   759 PWs)   bands (ev):

    -3.6100   0.2658   2.7930   4.1720

          k = 0.6250-0.1250 0.8750 (   751 PWs)   bands (ev):

    -2.3742  -0.8239   2.0687   3.1558

          k = 1.1250-0.6250 1.3750 (   757 PWs)   bands (ev):

    -4.5668   1.4769   3.7922   5.3114

          k = 0.3750 0.1250 0.6250 (   759 PWs)   bands (ev):

    -3.6100   0.2658   2.7930   4.1720

          k = 0.8750-0.3750 1.1250 (   760 PWs)   bands (ev):

    -4.0301   1.1512   3.4386   3.8954

          k =-0.1250-0.8750 0.1250 (   759 PWs)   bands (ev):

    -2.5457  -0.7245   2.6850   3.4251

          k = 0.3750-1.3750 0.6250 (   759 PWs)   bands (ev):

    -3.4146  -0.6211   3.8175   4.5326

          k =-0.3750 0.3750 0.3750 (   763 PWs)   bands (ev):

    -4.1292   0.1727   5.0018   5.0018

          k = 0.1250-0.1250 0.8750 (   759 PWs)   bands (ev):

    -2.5457  -0.7245   2.6850   3.4251

          k = 0.3750-0.3750 1.1250 (   759 PWs)   bands (ev):

    -2.9151  -0.5264   2.1311   4.2124

          k = 0.8750-0.8750 1.6250 (   760 PWs)   bands (ev):

    -4.0301   1.1512   3.4386   3.8954

          k = 0.1250-0.1250 0.1250 (   752 PWs)   bands (ev):

    -5.6021   4.4848   5.7939   5.7939

          k = 0.6250-0.6250 0.6250 (   763 PWs)   bands (ev):

    -4.1292   0.1727   5.0018   5.0018

          k =-0.3750-0.3750-0.1250 (   757 PWs)   bands (ev):

    -4.5668   1.4769   3.7922   5.3114

          k = 0.1250-0.8750 0.3750 (   751 PWs)   bands (ev):

    -2.3742  -0.8239   2.0687   3.1558

          k =-0.1250-0.3750 0.3750 (   757 PWs)   bands (ev):

    -4.5668   1.4769   3.7922   5.3114

          k = 0.3750-0.8750 0.8750 (   760 PWs)   bands (ev):

    -4.0301   1.1512   3.4386   3.8954

          k = 0.3750 0.3750 0.6250 (   759 PWs)   bands (ev):

    -3.4146  -0.6211   3.8175   4.5326

          k = 0.8750-0.1250 1.1250 (   759 PWs)   bands (ev):

    -2.5457  -0.7245   2.6850   3.4251

          k = 0.6250 0.3750-0.3750 (   759 PWs)   bands (ev):

    -3.4146  -0.6211   3.8175   4.5326

          k = 1.1250-0.1250 0.1250 (   759 PWs)   bands (ev):

    -2.5457  -0.7245   2.6850   3.4251

          k = 0.1250 0.1250 0.3750 (   765 PWs)   bands (ev):

    -5.0699   2.8646   4.7764   4.8458

          k = 0.6250-0.3750 0.8750 (   759 PWs)   bands (ev):

    -3.6100   0.2658   2.7930   4.1720

          k = 0.3750 0.1250-0.1250 (   765 PWs)   bands (ev):

    -5.0699   2.8646   4.7764   4.8458

          k = 0.8750-0.3750 0.3750 (   759 PWs)   bands (ev):

    -2.9151  -0.5264   2.1311   4.2124

          k =-0.1250-0.6250-0.1250 (   760 PWs)   bands (ev):

    -4.0301   1.1512   3.4386   3.8954

          k = 0.3750-1.1250 0.3750 (   759 PWs)   bands (ev):

    -2.9151  -0.5264   2.1311   4.2124

          k = 0.1250-0.6250 0.1250 (   760 PWs)   bands (ev):

    -4.0301   1.1512   3.4386   3.8954

          k = 0.6250-1.1250 0.6250 (   757 PWs)   bands (ev):

    -4.5668   1.4769   3.7922   5.3114

          k = 0.6250 0.1250 0.8750 (   751 PWs)   bands (ev):

    -2.3742  -0.8239   2.0687   3.1558

          k = 1.1250-0.3750 1.3750 (   759 PWs)   bands (ev):

    -3.6100   0.2658   2.7930   4.1720

          k =-0.8750 0.1250 0.6250 (   751 PWs)   bands (ev):

    -2.3742  -0.8239   2.0687   3.1558

          k =-0.3750-0.3750 1.1250 (   759 PWs)   bands (ev):

    -2.9151  -0.5264   2.1311   4.2124

          k = 0.8750 0.1250-0.6250 (   751 PWs)   bands (ev):

    -2.3742  -0.8239   2.0687   3.1558

          k = 1.3750-0.3750-0.1250 (   759 PWs)   bands (ev):

    -3.6100   0.2658   2.7930   4.1720

          k = 0.3750-0.1250 0.6250 (   759 PWs)   bands (ev):

    -3.6100   0.2658   2.7930   4.1720

          k = 0.8750-0.6250 1.1250 (   765 PWs)   bands (ev):

    -5.0699   2.8646   4.7764   4.8458

          k =-0.6250-0.1250 0.3750 (   759 PWs)   bands (ev):

    -3.6100   0.2658   2.7930   4.1720

          k =-0.1250-0.6250 0.8750 (   751 PWs)   bands (ev):

    -2.3742  -0.8239   2.0687   3.1558

          k = 0.6250-0.1250-0.3750 (   759 PWs)   bands (ev):

    -3.6100   0.2658   2.7930   4.1720

          k = 1.1250-0.6250 0.1250 (   751 PWs)   bands (ev):

    -2.3742  -0.8239   2.0687   3.1558

          k =-0.1250 0.8750-0.1250 (   759 PWs)   bands (ev):

    -2.5457  -0.7245   2.6850   3.4251

          k = 0.3750 0.3750 0.3750 (   763 PWs)   bands (ev):

    -4.1292   0.1727   5.0018   5.0018

          k = 0.1250 0.8750 0.1250 (   759 PWs)   bands (ev):

    -2.5457  -0.7245   2.6850   3.4251

          k = 0.6250 0.3750 0.6250 (   759 PWs)   bands (ev):

    -3.4146  -0.6211   3.8175   4.5326

          k = 0.3750-0.3750 0.3750 (   763 PWs)   bands (ev):

    -4.1292   0.1727   5.0018   5.0018

          k = 0.8750-0.8750 0.8750 (   752 PWs)   bands (ev):

    -5.6021   4.4848   5.7939   5.7939

          k = 0.3750 0.3750 1.1250 (   759 PWs)   bands (ev):

    -2.9151  -0.5264   2.1311   4.2124

          k = 0.8750-0.1250 1.6250 (   751 PWs)   bands (ev):

    -2.3742  -0.8239   2.0687   3.1558

          k = 1.1250 0.3750-0.3750 (   759 PWs)   bands (ev):

    -2.9151  -0.5264   2.1311   4.2124

          k = 1.6250-0.1250 0.1250 (   765 PWs)   bands (ev):

    -5.0699   2.8646   4.7764   4.8458

     highest occupied level (ev):     5.7939

     Writing output data file silicon.10.300.save

                                                                                

     bravais-lattice index     =            2
     lattice parameter (alat)  =      10.3000  a.u.
     unit-cell volume          =     273.1818 (a.u.)^3
     number of atoms/cell      =            2
     number of atomic types    =            1
     kinetic-energy cut-off    =      30.0000  Ry
     charge density cut-off    =     240.0000  Ry
     convergence threshold     =      1.0E-12
     beta                      =       0.7000
     number of iterations used =            4
     Exchange-correlation      = SLA  PW   PBE  PBE ( 1  4  3  4 0 0)


     celldm(1)=   10.30000  celldm(2)=    0.00000  celldm(3)=    0.00000
     celldm(4)=    0.00000  celldm(5)=    0.00000  celldm(6)=    0.00000

     crystal axes: (cart. coord. in units of alat)
               a(1) = ( -0.5000  0.0000  0.5000 )  
               a(2) = (  0.0000  0.5000  0.5000 )  
               a(3) = ( -0.5000  0.5000  0.0000 )  

     reciprocal axes: (cart. coord. in units 2 pi/alat)
               b(1) = ( -1.0000 -1.0000  1.0000 )  
               b(2) = (  1.0000  1.0000  1.0000 )  
               b(3) = ( -1.0000  1.0000 -1.0000 )  


     Atoms inside the unit cell: 

     Cartesian axes

     site n.  atom      mass           positions (alat units)
        1     Si  28.0860   tau(    1) = (    0.00000    0.00000    0.00000  )
        2     Si  28.0860   tau(    2) = (    0.25000    0.25000    0.25000  )

     Computing dynamical matrix for 
                    q = (   0.5000000  -0.5000000   0.5000000 )

     13 Sym.Ops. (with q -> -q+G )


     G cutoff =  644.9499  (   4288 G-vectors)     FFT grid: ( 36, 36, 36)
     G cutoff =  322.4749  (   1497 G-vectors)  smooth grid: ( 25, 25, 25)
     number of k points=    60

     PseudoPot. # 1 for Si read from file:
     /home/s1333534/quantum_espresso/qe-6.1/pseudo/si_pbe_v1.uspp.F.UPF.txt
     MD5 check sum: a056efeee980c13900f22a371efd63c1
     Pseudo is Ultrasoft + core correction, Zval =  4.0
     Generated by new atomic code, or converted to UPF format
     Using radial grid of  899 points,  6 beta functions with: 
                l(1) =   0
                l(2) =   0
                l(3) =   1
                l(4) =   1
                l(5) =   2
                l(6) =   2
     Q(r) pseudized with  8 coefficients,  rinner =    0.900   0.900   0.900
                                                       0.900   0.900


     Atomic displacements:
     There are   4 irreducible representations

     Representation     1      1 modes -  To be done

     Representation     2      1 modes -  To be done

     Representation     3      2 modes -  To be done

     Representation     4      2 modes -  To be done



     Alpha used in Ewald sum =   2.5000
     PHONON       :    27.30s CPU        35.62s WALL



     Representation #  1 mode #   1

     Self-consistent Calculation

      iter #   1 total cpu time :    35.9 secs   av.it.:   5.1
      thresh= 1.000E-02 alpha_mix =  0.700 |ddv_scf|^2 =  4.220E-06

      iter #   2 total cpu time :    36.3 secs   av.it.:   9.9
      thresh= 2.054E-04 alpha_mix =  0.700 |ddv_scf|^2 =  3.842E-06

      iter #   3 total cpu time :    36.7 secs   av.it.:   9.2
      thresh= 1.960E-04 alpha_mix =  0.700 |ddv_scf|^2 =  2.325E-09

      iter #   4 total cpu time :    37.1 secs   av.it.:   9.4
      thresh= 4.822E-06 alpha_mix =  0.700 |ddv_scf|^2 =  2.249E-11

      iter #   5 total cpu time :    37.5 secs   av.it.:   9.3
      thresh= 4.742E-07 alpha_mix =  0.700 |ddv_scf|^2 =  3.049E-13

     End of self-consistent calculation

     Convergence has been achieved 


     Representation #  2 mode #   2

     Self-consistent Calculation

      iter #   1 total cpu time :    37.9 secs   av.it.:   6.0
      thresh= 1.000E-02 alpha_mix =  0.700 |ddv_scf|^2 =  6.005E-05

      iter #   2 total cpu time :    38.3 secs   av.it.:   9.8
      thresh= 7.749E-04 alpha_mix =  0.700 |ddv_scf|^2 =  1.865E-04

      iter #   3 total cpu time :    38.7 secs   av.it.:   8.6
      thresh= 1.365E-03 alpha_mix =  0.700 |ddv_scf|^2 =  1.287E-08

      iter #   4 total cpu time :    39.1 secs   av.it.:   9.8
      thresh= 1.135E-05 alpha_mix =  0.700 |ddv_scf|^2 =  6.545E-10

      iter #   5 total cpu time :    39.6 secs   av.it.:  10.2
      thresh= 2.558E-06 alpha_mix =  0.700 |ddv_scf|^2 =  2.014E-11

      iter #   6 total cpu time :    40.0 secs   av.it.:   9.7
      thresh= 4.488E-07 alpha_mix =  0.700 |ddv_scf|^2 =  1.524E-13

     End of self-consistent calculation

     Convergence has been achieved 


     Representation #  3 modes #   3  4

     Self-consistent Calculation

      iter #   1 total cpu time :    40.8 secs   av.it.:   5.1
      thresh= 1.000E-02 alpha_mix =  0.700 |ddv_scf|^2 =  2.704E-08

      iter #   2 total cpu time :    41.6 secs   av.it.:  10.9
      thresh= 1.644E-05 alpha_mix =  0.700 |ddv_scf|^2 =  1.598E-09

      iter #   3 total cpu time :    42.3 secs   av.it.:  10.7
      thresh= 3.997E-06 alpha_mix =  0.700 |ddv_scf|^2 =  5.297E-11

      iter #   4 total cpu time :    43.0 secs   av.it.:  10.7
      thresh= 7.278E-07 alpha_mix =  0.700 |ddv_scf|^2 =  4.331E-13

     End of self-consistent calculation

     Convergence has been achieved 


     Representation #  4 modes #   5  6

     Self-consistent Calculation

      iter #   1 total cpu time :    43.7 secs   av.it.:   5.1
      thresh= 1.000E-02 alpha_mix =  0.700 |ddv_scf|^2 =  1.382E-07

      iter #   2 total cpu time :    44.5 secs   av.it.:  11.1
      thresh= 3.718E-05 alpha_mix =  0.700 |ddv_scf|^2 =  1.108E-08

      iter #   3 total cpu time :    45.3 secs   av.it.:  10.9
      thresh= 1.053E-05 alpha_mix =  0.700 |ddv_scf|^2 =  2.918E-10

      iter #   4 total cpu time :    46.0 secs   av.it.:   9.9
      thresh= 1.708E-06 alpha_mix =  0.700 |ddv_scf|^2 =  5.240E-13

     End of self-consistent calculation

     Convergence has been achieved 

     Number of q in the star =    4
     List of q in the star:
          1   0.500000000  -0.500000000   0.500000000
          2   0.500000000   0.500000000   0.500000000
          3  -0.500000000   0.500000000   0.500000000
          4   0.500000000   0.500000000  -0.500000000

     Diagonalizing the dynamical matrix

     q = (    0.500000000  -0.500000000   0.500000000 ) 

 **************************************************************************
     freq (    1) =       3.251179 [THz] =     108.447672 [cm-1]
     freq (    2) =       3.251179 [THz] =     108.447672 [cm-1]
     freq (    3) =      11.136456 [THz] =     371.472198 [cm-1]
     freq (    4) =      12.156490 [THz] =     405.496843 [cm-1]
     freq (    5) =      14.453513 [THz] =     482.117307 [cm-1]
     freq (    6) =      14.453513 [THz] =     482.117307 [cm-1]
 **************************************************************************

     Calculation of q =    0.0000000   0.5000000   0.0000000

   Info: using nr1, nr2, nr3 values from input

   Info: using nr1, nr2, nr3 values from input

     Parallelization info
     --------------------
     sticks:   dense  smooth     PW     G-vecs:    dense   smooth      PW
     Min         217     108     37                 4287     1495     309
     Max         218     109     38                 4289     1498     312
     Sum         871     433    151                17153     5985    1243



     bravais-lattice index     =            2
     lattice parameter (alat)  =      10.3000  a.u.
     unit-cell volume          =     273.1818 (a.u.)^3
     number of atoms/cell      =            2
     number of atomic types    =            1
     number of electrons       =         8.00
     number of Kohn-Sham states=            4
     kinetic-energy cutoff     =      30.0000  Ry
     charge density cutoff     =     240.0000  Ry
     Exchange-correlation      = SLA  PW   PBE  PBE ( 1  4  3  4 0 0)

     celldm(1)=  10.300000  celldm(2)=   0.000000  celldm(3)=   0.000000
     celldm(4)=   0.000000  celldm(5)=   0.000000  celldm(6)=   0.000000

     crystal axes: (cart. coord. in units of alat)
               a(1) = (  -0.500000   0.000000   0.500000 )  
               a(2) = (   0.000000   0.500000   0.500000 )  
               a(3) = (  -0.500000   0.500000   0.000000 )  

     reciprocal axes: (cart. coord. in units 2 pi/alat)
               b(1) = ( -1.000000 -1.000000  1.000000 )  
               b(2) = (  1.000000  1.000000  1.000000 )  
               b(3) = ( -1.000000  1.000000 -1.000000 )  


     PseudoPot. # 1 for Si read from file:
     /home/s1333534/quantum_espresso/qe-6.1/pseudo/si_pbe_v1.uspp.F.UPF.txt
     MD5 check sum: a056efeee980c13900f22a371efd63c1
     Pseudo is Ultrasoft + core correction, Zval =  4.0
     Generated by new atomic code, or converted to UPF format
     Using radial grid of  899 points,  6 beta functions with: 
                l(1) =   0
                l(2) =   0
                l(3) =   1
                l(4) =   1
                l(5) =   2
                l(6) =   2
     Q(r) pseudized with  8 coefficients,  rinner =    0.900   0.900   0.900
                                                       0.900   0.900

     atomic species   valence    mass     pseudopotential
        Si             4.00    28.08600     Si( 1.00)

     48 Sym. Ops., with inversion, found



   Cartesian axes

     site n.     atom                  positions (alat units)
         1           Si  tau(   1) = (   0.0000000   0.0000000   0.0000000  )
         2           Si  tau(   2) = (   0.2500000   0.2500000   0.2500000  )

     number of k points=    80
                       cart. coord. in units 2pi/alat
        k(    1) = (  -0.1250000   0.1250000   0.1250000), wk =   0.0312500
        k(    2) = (  -0.1250000   0.6250000   0.1250000), wk =   0.0000000
        k(    3) = (  -0.3750000   0.3750000  -0.1250000), wk =   0.0625000
        k(    4) = (  -0.3750000   0.8750000  -0.1250000), wk =   0.0000000
        k(    5) = (   0.3750000  -0.3750000   0.6250000), wk =   0.0625000
        k(    6) = (   0.3750000   0.1250000   0.6250000), wk =   0.0000000
        k(    7) = (   0.1250000  -0.1250000   0.3750000), wk =   0.0625000
        k(    8) = (   0.1250000   0.3750000   0.3750000), wk =   0.0000000
        k(    9) = (  -0.1250000   0.6250000   0.1250000), wk =   0.0312500
        k(   10) = (  -0.1250000   1.1250000   0.1250000), wk =   0.0000000
        k(   11) = (   0.6250000  -0.1250000   0.8750000), wk =   0.0625000
        k(   12) = (   0.6250000   0.3750000   0.8750000), wk =   0.0000000
        k(   13) = (   0.3750000   0.1250000   0.6250000), wk =   0.0625000
        k(   14) = (   0.3750000   0.6250000   0.6250000), wk =   0.0000000
        k(   15) = (  -0.1250000  -0.8750000   0.1250000), wk =   0.0312500
        k(   16) = (  -0.1250000  -0.3750000   0.1250000), wk =   0.0000000
        k(   17) = (  -0.3750000   0.3750000   0.3750000), wk =   0.0312500
        k(   18) = (  -0.3750000   0.8750000   0.3750000), wk =   0.0000000
        k(   19) = (   0.3750000  -0.3750000   1.1250000), wk =   0.0625000
        k(   20) = (   0.3750000   0.1250000   1.1250000), wk =   0.0000000
        k(   21) = (  -0.1250000  -0.1250000   0.1250000), wk =   0.0312500
        k(   22) = (  -0.1250000   0.3750000   0.1250000), wk =   0.0000000
        k(   23) = (   0.1250000  -0.3750000   0.3750000), wk =   0.0625000
        k(   24) = (   0.1250000   0.1250000   0.3750000), wk =   0.0000000
        k(   25) = (   0.3750000  -0.1250000   0.3750000), wk =   0.0312500
        k(   26) = (   0.3750000   0.3750000   0.3750000), wk =   0.0000000
        k(   27) = (   0.3750000   0.1250000   0.3750000), wk =   0.0312500
        k(   28) = (   0.3750000   0.6250000   0.3750000), wk =   0.0000000
        k(   29) = (  -0.6250000   0.3750000  -0.3750000), wk =   0.0625000
        k(   30) = (  -0.6250000   0.8750000  -0.3750000), wk =   0.0000000
        k(   31) = (  -0.3750000   0.6250000  -0.3750000), wk =   0.0312500
        k(   32) = (  -0.3750000   1.1250000  -0.3750000), wk =   0.0000000
        k(   33) = (  -0.3750000  -0.6250000  -0.3750000), wk =   0.0312500
        k(   34) = (  -0.3750000  -0.1250000  -0.3750000), wk =   0.0000000
        k(   35) = (  -0.3750000   0.1250000  -0.1250000), wk =   0.0625000
        k(   36) = (  -0.3750000   0.6250000  -0.1250000), wk =   0.0000000
        k(   37) = (  -0.1250000   0.3750000  -0.1250000), wk =   0.0312500
        k(   38) = (  -0.1250000   0.8750000  -0.1250000), wk =   0.0000000
        k(   39) = (  -0.1250000  -0.3750000  -0.1250000), wk =   0.0312500
        k(   40) = (  -0.1250000   0.1250000  -0.1250000), wk =   0.0000000
        k(   41) = (  -0.1250000  -0.6250000   0.1250000), wk =   0.0312500
        k(   42) = (  -0.1250000  -0.1250000   0.1250000), wk =   0.0000000
        k(   43) = (   0.6250000  -0.1250000  -0.1250000), wk =   0.0625000
        k(   44) = (   0.6250000   0.3750000  -0.1250000), wk =   0.0000000
        k(   45) = (   0.6250000   0.1250000   0.1250000), wk =   0.0625000
        k(   46) = (   0.6250000   0.6250000   0.1250000), wk =   0.0000000
        k(   47) = (  -0.8750000   0.1250000  -0.6250000), wk =   0.0625000
        k(   48) = (  -0.8750000   0.6250000  -0.6250000), wk =   0.0000000
        k(   49) = (  -0.1250000   0.6250000  -0.8750000), wk =   0.0625000
        k(   50) = (  -0.1250000   1.1250000  -0.8750000), wk =   0.0000000
        k(   51) = (  -0.1250000   0.8750000  -0.6250000), wk =   0.0625000
        k(   52) = (  -0.1250000   1.3750000  -0.6250000), wk =   0.0000000
        k(   53) = (  -0.1250000  -0.8750000  -0.6250000), wk =   0.0625000
        k(   54) = (  -0.1250000  -0.3750000  -0.6250000), wk =   0.0000000
        k(   55) = (   0.8750000  -0.6250000   0.1250000), wk =   0.0625000
        k(   56) = (   0.8750000  -0.1250000   0.1250000), wk =   0.0000000
        k(   57) = (  -0.6250000  -0.1250000  -0.3750000), wk =   0.0625000
        k(   58) = (  -0.6250000   0.3750000  -0.3750000), wk =   0.0000000
        k(   59) = (   0.1250000   0.3750000  -0.6250000), wk =   0.0625000
        k(   60) = (   0.1250000   0.8750000  -0.6250000), wk =   0.0000000
        k(   61) = (   0.1250000   0.6250000  -0.3750000), wk =   0.0625000
        k(   62) = (   0.1250000   1.1250000  -0.3750000), wk =   0.0000000
        k(   63) = (   0.1250000  -0.6250000  -0.3750000), wk =   0.0625000
        k(   64) = (   0.1250000  -0.1250000  -0.3750000), wk =   0.0000000
        k(   65) = (   0.6250000  -0.3750000  -0.1250000), wk =   0.0625000
        k(   66) = (   0.6250000   0.1250000  -0.1250000), wk =   0.0000000
        k(   67) = (  -0.1250000   0.8750000   0.1250000), wk =   0.0312500
        k(   68) = (  -0.1250000   1.3750000   0.1250000), wk =   0.0000000
        k(   69) = (  -0.8750000  -0.1250000  -0.1250000), wk =   0.0625000
        k(   70) = (  -0.8750000   0.3750000  -0.1250000), wk =   0.0000000
        k(   71) = (  -0.8750000   0.1250000   0.1250000), wk =   0.0625000
        k(   72) = (  -0.8750000   0.6250000   0.1250000), wk =   0.0000000
        k(   73) = (  -0.3750000  -0.3750000   0.3750000), wk =   0.0312500
        k(   74) = (  -0.3750000   0.1250000   0.3750000), wk =   0.0000000
        k(   75) = (  -1.1250000   0.3750000  -0.3750000), wk =   0.0625000
        k(   76) = (  -1.1250000   0.8750000  -0.3750000), wk =   0.0000000
        k(   77) = (  -0.3750000   1.1250000  -0.3750000), wk =   0.0312500
        k(   78) = (  -0.3750000   1.6250000  -0.3750000), wk =   0.0000000
        k(   79) = (  -0.3750000  -1.1250000  -0.3750000), wk =   0.0312500
        k(   80) = (  -0.3750000  -0.6250000  -0.3750000), wk =   0.0000000

     Dense  grid:    17153 G-vectors     FFT dimensions: (  36,  36,  36)

     Smooth grid:     5985 G-vectors     FFT dimensions: (  25,  25,  25)

     Estimated max dynamical RAM per process >       1.51MB

     Estimated total allocated dynamical RAM >       6.05MB

     The potential is recalculated from file :
     ./_ph0/silicon.10.300.save/charge-density.dat

     Starting wfc are    8 atomic wfcs

     Band Structure Calculation
     Davidson diagonalization with overlap

     ethr =  1.25E-10,  avg # of iterations = 12.2

     total cpu time spent up to now is        3.5 secs

     End of band structure calculation

          k =-0.1250 0.1250 0.1250 (   752 PWs)   bands (ev):

    -5.6021   4.4848   5.7939   5.7939

          k =-0.1250 0.6250 0.1250 (   760 PWs)   bands (ev):

    -4.0301   1.1512   3.4386   3.8954

          k =-0.3750 0.3750-0.1250 (   757 PWs)   bands (ev):

    -4.5668   1.4769   3.7922   5.3114

          k =-0.3750 0.8750-0.1250 (   751 PWs)   bands (ev):

    -2.3742  -0.8239   2.0687   3.1558

          k = 0.3750-0.3750 0.6250 (   759 PWs)   bands (ev):

    -3.4146  -0.6211   3.8175   4.5326

          k = 0.3750 0.1250 0.6250 (   759 PWs)   bands (ev):

    -3.6100   0.2658   2.7930   4.1720

          k = 0.1250-0.1250 0.3750 (   765 PWs)   bands (ev):

    -5.0699   2.8646   4.7764   4.8458

          k = 0.1250 0.3750 0.3750 (   757 PWs)   bands (ev):

    -4.5668   1.4769   3.7922   5.3114

          k =-0.1250 0.6250 0.1250 (   760 PWs)   bands (ev):

    -4.0301   1.1512   3.4386   3.8954

          k =-0.1250 1.1250 0.1250 (   759 PWs)   bands (ev):

    -2.5457  -0.7245   2.6850   3.4251

          k = 0.6250-0.1250 0.8750 (   751 PWs)   bands (ev):

    -2.3742  -0.8239   2.0687   3.1558

          k = 0.6250 0.3750 0.8750 (   759 PWs)   bands (ev):

    -3.6100   0.2658   2.7930   4.1720

          k = 0.3750 0.1250 0.6250 (   759 PWs)   bands (ev):

    -3.6100   0.2658   2.7930   4.1720

          k = 0.3750 0.6250 0.6250 (   759 PWs)   bands (ev):

    -3.4146  -0.6211   3.8175   4.5326

          k =-0.1250-0.8750 0.1250 (   759 PWs)   bands (ev):

    -2.5457  -0.7245   2.6850   3.4251

          k =-0.1250-0.3750 0.1250 (   765 PWs)   bands (ev):

    -5.0699   2.8646   4.7764   4.8458

          k =-0.3750 0.3750 0.3750 (   763 PWs)   bands (ev):

    -4.1292   0.1727   5.0018   5.0018

          k =-0.3750 0.8750 0.3750 (   759 PWs)   bands (ev):

    -2.9151  -0.5264   2.1311   4.2124

          k = 0.3750-0.3750 1.1250 (   759 PWs)   bands (ev):

    -2.9151  -0.5264   2.1311   4.2124

          k = 0.3750 0.1250 1.1250 (   751 PWs)   bands (ev):

    -2.3742  -0.8239   2.0687   3.1558

          k =-0.1250-0.1250 0.1250 (   752 PWs)   bands (ev):

    -5.6021   4.4848   5.7939   5.7939

          k =-0.1250 0.3750 0.1250 (   765 PWs)   bands (ev):

    -5.0699   2.8646   4.7764   4.8458

          k = 0.1250-0.3750 0.3750 (   757 PWs)   bands (ev):

    -4.5668   1.4769   3.7922   5.3114

          k = 0.1250 0.1250 0.3750 (   765 PWs)   bands (ev):

    -5.0699   2.8646   4.7764   4.8458

          k = 0.3750-0.1250 0.3750 (   757 PWs)   bands (ev):

    -4.5668   1.4769   3.7922   5.3114

          k = 0.3750 0.3750 0.3750 (   763 PWs)   bands (ev):

    -4.1292   0.1727   5.0018   5.0018

          k = 0.3750 0.1250 0.3750 (   757 PWs)   bands (ev):

    -4.5668   1.4769   3.7922   5.3114

          k = 0.3750 0.6250 0.3750 (   759 PWs)   bands (ev):

    -3.4146  -0.6211   3.8175   4.5326

          k =-0.6250 0.3750-0.3750 (   759 PWs)   bands (ev):

    -3.4146  -0.6211   3.8175   4.5326

          k =-0.6250 0.8750-0.3750 (   759 PWs)   bands (ev):

    -3.6100   0.2658   2.7930   4.1720

          k =-0.3750 0.6250-0.3750 (   759 PWs)   bands (ev):

    -3.4146  -0.6211   3.8175   4.5326

          k =-0.3750 1.1250-0.3750 (   759 PWs)   bands (ev):

    -2.9151  -0.5264   2.1311   4.2124

          k =-0.3750-0.6250-0.3750 (   759 PWs)   bands (ev):

    -3.4146  -0.6211   3.8175   4.5326

          k =-0.3750-0.1250-0.3750 (   757 PWs)   bands (ev):

    -4.5668   1.4769   3.7922   5.3114

          k =-0.3750 0.1250-0.1250 (   765 PWs)   bands (ev):

    -5.0699   2.8646   4.7764   4.8458

          k =-0.3750 0.6250-0.1250 (   759 PWs)   bands (ev):

    -3.6100   0.2658   2.7930   4.1720

          k =-0.1250 0.3750-0.1250 (   765 PWs)   bands (ev):

    -5.0699   2.8646   4.7764   4.8458

          k =-0.1250 0.8750-0.1250 (   759 PWs)   bands (ev):

    -2.5457  -0.7245   2.6850   3.4251

          k =-0.1250-0.3750-0.1250 (   765 PWs)   bands (ev):

    -5.0699   2.8646   4.7764   4.8458

          k =-0.1250 0.1250-0.1250 (   752 PWs)   bands (ev):

    -5.6021   4.4848   5.7939   5.7939

          k =-0.1250-0.6250 0.1250 (   760 PWs)   bands (ev):

    -4.0301   1.1512   3.4386   3.8954

          k =-0.1250-0.1250 0.1250 (   752 PWs)   bands (ev):

    -5.6021   4.4848   5.7939   5.7939

          k = 0.6250-0.1250-0.1250 (   760 PWs)   bands (ev):

    -4.0301   1.1512   3.4386   3.8954

          k = 0.6250 0.3750-0.1250 (   759 PWs)   bands (ev):

    -3.6100   0.2658   2.7930   4.1720

          k = 0.6250 0.1250 0.1250 (   760 PWs)   bands (ev):

    -4.0301   1.1512   3.4386   3.8954

          k = 0.6250 0.6250 0.1250 (   759 PWs)   bands (ev):

    -2.9151  -0.5264   2.1311   4.2124

          k =-0.8750 0.1250-0.6250 (   751 PWs)   bands (ev):

    -2.3742  -0.8239   2.0687   3.1558

          k =-0.8750 0.6250-0.6250 (   757 PWs)   bands (ev):

    -4.5668   1.4769   3.7922   5.3114

          k =-0.1250 0.6250-0.8750 (   751 PWs)   bands (ev):

    -2.3742  -0.8239   2.0687   3.1558

          k =-0.1250 1.1250-0.8750 (   759 PWs)   bands (ev):

    -2.5457  -0.7245   2.6850   3.4251

          k =-0.1250 0.8750-0.6250 (   751 PWs)   bands (ev):

    -2.3742  -0.8239   2.0687   3.1558

          k =-0.1250 1.3750-0.6250 (   759 PWs)   bands (ev):

    -2.9151  -0.5264   2.1311   4.2124

          k =-0.1250-0.8750-0.6250 (   751 PWs)   bands (ev):

    -2.3742  -0.8239   2.0687   3.1558

          k =-0.1250-0.3750-0.6250 (   759 PWs)   bands (ev):

    -3.6100   0.2658   2.7930   4.1720

          k = 0.8750-0.6250 0.1250 (   751 PWs)   bands (ev):

    -2.3742  -0.8239   2.0687   3.1558

          k = 0.8750-0.1250 0.1250 (   759 PWs)   bands (ev):

    -2.5457  -0.7245   2.6850   3.4251

          k =-0.6250-0.1250-0.3750 (   759 PWs)   bands (ev):

    -3.6100   0.2658   2.7930   4.1720

          k =-0.6250 0.3750-0.3750 (   759 PWs)   bands (ev):

    -3.4146  -0.6211   3.8175   4.5326

          k = 0.1250 0.3750-0.6250 (   759 PWs)   bands (ev):

    -3.6100   0.2658   2.7930   4.1720

          k = 0.1250 0.8750-0.6250 (   751 PWs)   bands (ev):

    -2.3742  -0.8239   2.0687   3.1558

          k = 0.1250 0.6250-0.3750 (   759 PWs)   bands (ev):

    -3.6100   0.2658   2.7930   4.1720

          k = 0.1250 1.1250-0.3750 (   751 PWs)   bands (ev):

    -2.3742  -0.8239   2.0687   3.1558

          k = 0.1250-0.6250-0.3750 (   759 PWs)   bands (ev):

    -3.6100   0.2658   2.7930   4.1720

          k = 0.1250-0.1250-0.3750 (   765 PWs)   bands (ev):

    -5.0699   2.8646   4.7764   4.8458

          k = 0.6250-0.3750-0.1250 (   759 PWs)   bands (ev):

    -3.6100   0.2658   2.7930   4.1720

          k = 0.6250 0.1250-0.1250 (   760 PWs)   bands (ev):

    -4.0301   1.1512   3.4386   3.8954

          k =-0.1250 0.8750 0.1250 (   759 PWs)   bands (ev):

    -2.5457  -0.7245   2.6850   3.4251

          k =-0.1250 1.3750 0.1250 (   760 PWs)   bands (ev):

    -4.0301   1.1512   3.4386   3.8954

          k =-0.8750-0.1250-0.1250 (   759 PWs)   bands (ev):

    -2.5457  -0.7245   2.6850   3.4251

          k =-0.8750 0.3750-0.1250 (   751 PWs)   bands (ev):

    -2.3742  -0.8239   2.0687   3.1558

          k =-0.8750 0.1250 0.1250 (   759 PWs)   bands (ev):

    -2.5457  -0.7245   2.6850   3.4251

          k =-0.8750 0.6250 0.1250 (   751 PWs)   bands (ev):

    -2.3742  -0.8239   2.0687   3.1558

          k =-0.3750-0.3750 0.3750 (   763 PWs)   bands (ev):

    -4.1292   0.1727   5.0018   5.0018

          k =-0.3750 0.1250 0.3750 (   757 PWs)   bands (ev):

    -4.5668   1.4769   3.7922   5.3114

          k =-1.1250 0.3750-0.3750 (   759 PWs)   bands (ev):

    -2.9151  -0.5264   2.1311   4.2124

          k =-1.1250 0.8750-0.3750 (   760 PWs)   bands (ev):

    -4.0301   1.1512   3.4386   3.8954

          k =-0.3750 1.1250-0.3750 (   759 PWs)   bands (ev):

    -2.9151  -0.5264   2.1311   4.2124

          k =-0.3750 1.6250-0.3750 (   763 PWs)   bands (ev):

    -4.1292   0.1727   5.0018   5.0018

          k =-0.3750-1.1250-0.3750 (   759 PWs)   bands (ev):

    -2.9151  -0.5264   2.1311   4.2124

          k =-0.3750-0.6250-0.3750 (   759 PWs)   bands (ev):

    -3.4146  -0.6211   3.8175   4.5326

     highest occupied level (ev):     5.7939

     Writing output data file silicon.10.300.save

                                                                                

     bravais-lattice index     =            2
     lattice parameter (alat)  =      10.3000  a.u.
     unit-cell volume          =     273.1818 (a.u.)^3
     number of atoms/cell      =            2
     number of atomic types    =            1
     kinetic-energy cut-off    =      30.0000  Ry
     charge density cut-off    =     240.0000  Ry
     convergence threshold     =      1.0E-12
     beta                      =       0.7000
     number of iterations used =            4
     Exchange-correlation      = SLA  PW   PBE  PBE ( 1  4  3  4 0 0)


     celldm(1)=   10.30000  celldm(2)=    0.00000  celldm(3)=    0.00000
     celldm(4)=    0.00000  celldm(5)=    0.00000  celldm(6)=    0.00000

     crystal axes: (cart. coord. in units of alat)
               a(1) = ( -0.5000  0.0000  0.5000 )  
               a(2) = (  0.0000  0.5000  0.5000 )  
               a(3) = ( -0.5000  0.5000  0.0000 )  

     reciprocal axes: (cart. coord. in units 2 pi/alat)
               b(1) = ( -1.0000 -1.0000  1.0000 )  
               b(2) = (  1.0000  1.0000  1.0000 )  
               b(3) = ( -1.0000  1.0000 -1.0000 )  


     Atoms inside the unit cell: 

     Cartesian axes

     site n.  atom      mass           positions (alat units)
        1     Si  28.0860   tau(    1) = (    0.00000    0.00000    0.00000  )
        2     Si  28.0860   tau(    2) = (    0.25000    0.25000    0.25000  )

     Computing dynamical matrix for 
                    q = (   0.0000000   0.5000000   0.0000000 )

      8 Sym.Ops. (no q -> -q+G )


     G cutoff =  644.9499  (   4288 G-vectors)     FFT grid: ( 36, 36, 36)
     G cutoff =  322.4749  (   1496 G-vectors)  smooth grid: ( 25, 25, 25)
     number of k points=    80

     PseudoPot. # 1 for Si read from file:
     /home/s1333534/quantum_espresso/qe-6.1/pseudo/si_pbe_v1.uspp.F.UPF.txt
     MD5 check sum: a056efeee980c13900f22a371efd63c1
     Pseudo is Ultrasoft + core correction, Zval =  4.0
     Generated by new atomic code, or converted to UPF format
     Using radial grid of  899 points,  6 beta functions with: 
                l(1) =   0
                l(2) =   0
                l(3) =   1
                l(4) =   1
                l(5) =   2
                l(6) =   2
     Q(r) pseudized with  8 coefficients,  rinner =    0.900   0.900   0.900
                                                       0.900   0.900

     Mode symmetry, C_4v (4mm)  point group:


     Atomic displacements:
     There are   4 irreducible representations

     Representation     1      1 modes -A_1  G_1 D_1  To be done

     Representation     2      1 modes -B_2  G_4 D_2'  To be done

     Representation     3      2 modes -E    G_5 D_5  To be done

     Representation     4      2 modes -E    G_5 D_5  To be done



     Alpha used in Ewald sum =   2.5000
     PHONON       :    37.29s CPU        48.53s WALL



     Representation #  1 mode #   1

     Self-consistent Calculation

      iter #   1 total cpu time :    48.9 secs   av.it.:   6.2
      thresh= 1.000E-02 alpha_mix =  0.700 |ddv_scf|^2 =  5.173E-04

      iter #   2 total cpu time :    49.3 secs   av.it.:   9.2
      thresh= 2.274E-03 alpha_mix =  0.700 |ddv_scf|^2 =  6.836E-03

      iter #   3 total cpu time :    49.7 secs   av.it.:   7.3
      thresh= 8.268E-03 alpha_mix =  0.700 |ddv_scf|^2 =  1.044E-08

      iter #   4 total cpu time :    50.2 secs   av.it.:  10.1
      thresh= 1.022E-05 alpha_mix =  0.700 |ddv_scf|^2 =  9.920E-10

      iter #   5 total cpu time :    50.7 secs   av.it.:   9.6
      thresh= 3.150E-06 alpha_mix =  0.700 |ddv_scf|^2 =  1.161E-10

      iter #   6 total cpu time :    51.1 secs   av.it.:   9.3
      thresh= 1.078E-06 alpha_mix =  0.700 |ddv_scf|^2 =  3.375E-13

     End of self-consistent calculation

     Convergence has been achieved 


     Representation #  2 mode #   2

     Self-consistent Calculation

      iter #   1 total cpu time :    51.5 secs   av.it.:   5.1
      thresh= 1.000E-02 alpha_mix =  0.700 |ddv_scf|^2 =  8.136E-07

      iter #   2 total cpu time :    52.0 secs   av.it.:  10.4
      thresh= 9.020E-05 alpha_mix =  0.700 |ddv_scf|^2 =  2.196E-07

      iter #   3 total cpu time :    52.5 secs   av.it.:   9.9
      thresh= 4.686E-05 alpha_mix =  0.700 |ddv_scf|^2 =  2.229E-09

      iter #   4 total cpu time :    53.0 secs   av.it.:  10.1
      thresh= 4.721E-06 alpha_mix =  0.700 |ddv_scf|^2 =  8.561E-11

      iter #   5 total cpu time :    53.5 secs   av.it.:  10.3
      thresh= 9.252E-07 alpha_mix =  0.700 |ddv_scf|^2 =  5.163E-13

     End of self-consistent calculation

     Convergence has been achieved 


     Representation #  3 modes #   3  4

     Self-consistent Calculation

      iter #   1 total cpu time :    54.1 secs   av.it.:   5.2
      thresh= 1.000E-02 alpha_mix =  0.700 |ddv_scf|^2 =  1.444E-07

      iter #   2 total cpu time :    55.1 secs   av.it.:  11.5
      thresh= 3.800E-05 alpha_mix =  0.700 |ddv_scf|^2 =  1.989E-08

      iter #   3 total cpu time :    56.0 secs   av.it.:  11.1
      thresh= 1.410E-05 alpha_mix =  0.700 |ddv_scf|^2 =  3.351E-10

      iter #   4 total cpu time :    56.8 secs   av.it.:  10.7
      thresh= 1.831E-06 alpha_mix =  0.700 |ddv_scf|^2 =  7.778E-13

     End of self-consistent calculation

     Convergence has been achieved 


     Representation #  4 modes #   5  6

     Self-consistent Calculation

      iter #   1 total cpu time :    57.6 secs   av.it.:   5.3
      thresh= 1.000E-02 alpha_mix =  0.700 |ddv_scf|^2 =  1.324E-07

      iter #   2 total cpu time :    58.5 secs   av.it.:  11.4
      thresh= 3.638E-05 alpha_mix =  0.700 |ddv_scf|^2 =  1.774E-08

      iter #   3 total cpu time :    59.4 secs   av.it.:  11.2
      thresh= 1.332E-05 alpha_mix =  0.700 |ddv_scf|^2 =  3.434E-10

      iter #   4 total cpu time :    60.3 secs   av.it.:  11.0
      thresh= 1.853E-06 alpha_mix =  0.700 |ddv_scf|^2 =  8.383E-13

     End of self-consistent calculation

     Convergence has been achieved 

     Number of q in the star =    6
     List of q in the star:
          1   0.000000000   0.500000000   0.000000000
          2   0.000000000  -0.500000000   0.000000000
          3   0.500000000   0.000000000   0.000000000
          4   0.000000000   0.000000000   0.500000000
          5   0.000000000   0.000000000  -0.500000000
          6  -0.500000000   0.000000000   0.000000000

     Diagonalizing the dynamical matrix

     q = (    0.000000000   0.500000000   0.000000000 ) 

 **************************************************************************
     freq (    1) =       3.747856 [THz] =     125.015030 [cm-1]
     freq (    2) =       3.747856 [THz] =     125.015030 [cm-1]
     freq (    3) =       7.132810 [THz] =     237.924943 [cm-1]
     freq (    4) =      13.993684 [THz] =     466.779047 [cm-1]
     freq (    5) =      13.993684 [THz] =     466.779047 [cm-1]
     freq (    6) =      14.594894 [THz] =     486.833275 [cm-1]
 **************************************************************************

     Mode symmetry, C_4v (4mm)  point group:

     freq (  1 -  2) =        125.0  [cm-1]   --> E    G_5 D_5       
     freq (  3 -  3) =        237.9  [cm-1]   --> A_1  G_1 D_1       
     freq (  4 -  5) =        466.8  [cm-1]   --> E    G_5 D_5       
     freq (  6 -  6) =        486.8  [cm-1]   --> B_2  G_4 D_2'      

     Calculation of q =    0.7500000  -0.2500000   0.7500000

   Info: using nr1, nr2, nr3 values from input

   Info: using nr1, nr2, nr3 values from input

     Parallelization info
     --------------------
     sticks:   dense  smooth     PW     G-vecs:    dense   smooth      PW
     Min         217     108     40                 4287     1495     362
     Max         218     109     41                 4289     1498     366
     Sum         871     433    163                17153     5985    1459



     bravais-lattice index     =            2
     lattice parameter (alat)  =      10.3000  a.u.
     unit-cell volume          =     273.1818 (a.u.)^3
     number of atoms/cell      =            2
     number of atomic types    =            1
     number of electrons       =         8.00
     number of Kohn-Sham states=            4
     kinetic-energy cutoff     =      30.0000  Ry
     charge density cutoff     =     240.0000  Ry
     Exchange-correlation      = SLA  PW   PBE  PBE ( 1  4  3  4 0 0)

     celldm(1)=  10.300000  celldm(2)=   0.000000  celldm(3)=   0.000000
     celldm(4)=   0.000000  celldm(5)=   0.000000  celldm(6)=   0.000000

     crystal axes: (cart. coord. in units of alat)
               a(1) = (  -0.500000   0.000000   0.500000 )  
               a(2) = (   0.000000   0.500000   0.500000 )  
               a(3) = (  -0.500000   0.500000   0.000000 )  

     reciprocal axes: (cart. coord. in units 2 pi/alat)
               b(1) = ( -1.000000 -1.000000  1.000000 )  
               b(2) = (  1.000000  1.000000  1.000000 )  
               b(3) = ( -1.000000  1.000000 -1.000000 )  


     PseudoPot. # 1 for Si read from file:
     /home/s1333534/quantum_espresso/qe-6.1/pseudo/si_pbe_v1.uspp.F.UPF.txt
     MD5 check sum: a056efeee980c13900f22a371efd63c1
     Pseudo is Ultrasoft + core correction, Zval =  4.0
     Generated by new atomic code, or converted to UPF format
     Using radial grid of  899 points,  6 beta functions with: 
                l(1) =   0
                l(2) =   0
                l(3) =   1
                l(4) =   1
                l(5) =   2
                l(6) =   2
     Q(r) pseudized with  8 coefficients,  rinner =    0.900   0.900   0.900
                                                       0.900   0.900

     atomic species   valence    mass     pseudopotential
        Si             4.00    28.08600     Si( 1.00)

     48 Sym. Ops., with inversion, found



   Cartesian axes

     site n.     atom                  positions (alat units)
         1           Si  tau(   1) = (   0.0000000   0.0000000   0.0000000  )
         2           Si  tau(   2) = (   0.2500000   0.2500000   0.2500000  )

     number of k points=   288

     Number of k-points >= 100: set verbosity='high' to print them.

     Dense  grid:    17153 G-vectors     FFT dimensions: (  36,  36,  36)

     Smooth grid:     5985 G-vectors     FFT dimensions: (  25,  25,  25)

     Estimated max dynamical RAM per process >       1.51MB

     Estimated total allocated dynamical RAM >       6.05MB

     The potential is recalculated from file :
     ./_ph0/silicon.10.300.save/charge-density.dat

     Starting wfc are    8 atomic wfcs

     Band Structure Calculation
     Davidson diagonalization with overlap

     ethr =  1.25E-10,  avg # of iterations = 12.1

     total cpu time spent up to now is        6.7 secs

     End of band structure calculation

     Number of k-points >= 100: set verbosity='high' to print the bands.

     highest occupied level (ev):     5.7939

     Writing output data file silicon.10.300.save

                                                                                

     bravais-lattice index     =            2
     lattice parameter (alat)  =      10.3000  a.u.
     unit-cell volume          =     273.1818 (a.u.)^3
     number of atoms/cell      =            2
     number of atomic types    =            1
     kinetic-energy cut-off    =      30.0000  Ry
     charge density cut-off    =     240.0000  Ry
     convergence threshold     =      1.0E-12
     beta                      =       0.7000
     number of iterations used =            4
     Exchange-correlation      = SLA  PW   PBE  PBE ( 1  4  3  4 0 0)


     celldm(1)=   10.30000  celldm(2)=    0.00000  celldm(3)=    0.00000
     celldm(4)=    0.00000  celldm(5)=    0.00000  celldm(6)=    0.00000

     crystal axes: (cart. coord. in units of alat)
               a(1) = ( -0.5000  0.0000  0.5000 )  
               a(2) = (  0.0000  0.5000  0.5000 )  
               a(3) = ( -0.5000  0.5000  0.0000 )  

     reciprocal axes: (cart. coord. in units 2 pi/alat)
               b(1) = ( -1.0000 -1.0000  1.0000 )  
               b(2) = (  1.0000  1.0000  1.0000 )  
               b(3) = ( -1.0000  1.0000 -1.0000 )  


     Atoms inside the unit cell: 

     Cartesian axes

     site n.  atom      mass           positions (alat units)
        1     Si  28.0860   tau(    1) = (    0.00000    0.00000    0.00000  )
        2     Si  28.0860   tau(    2) = (    0.25000    0.25000    0.25000  )

     Computing dynamical matrix for 
                    q = (   0.7500000  -0.2500000   0.7500000 )

      2 Sym.Ops. (no q -> -q+G )


     G cutoff =  644.9499  (   4288 G-vectors)     FFT grid: ( 36, 36, 36)
     G cutoff =  322.4749  (   1497 G-vectors)  smooth grid: ( 25, 25, 25)
     number of k points=   288

     PseudoPot. # 1 for Si read from file:
     /home/s1333534/quantum_espresso/qe-6.1/pseudo/si_pbe_v1.uspp.F.UPF.txt
     MD5 check sum: a056efeee980c13900f22a371efd63c1
     Pseudo is Ultrasoft + core correction, Zval =  4.0
     Generated by new atomic code, or converted to UPF format
     Using radial grid of  899 points,  6 beta functions with: 
                l(1) =   0
                l(2) =   0
                l(3) =   1
                l(4) =   1
                l(5) =   2
                l(6) =   2
     Q(r) pseudized with  8 coefficients,  rinner =    0.900   0.900   0.900
                                                       0.900   0.900

     Mode symmetry, C_s (m)     point group:


     Atomic displacements:
     There are   6 irreducible representations

     Representation     1      1 modes -A'  To be done

     Representation     2      1 modes -A'  To be done

     Representation     3      1 modes -A'  To be done

     Representation     4      1 modes -A'  To be done

     Representation     5      1 modes -A''  To be done

     Representation     6      1 modes -A''  To be done



     Alpha used in Ewald sum =   2.5000
     PHONON       :  0m51.14s CPU     1m 5.58s WALL



     Representation #  1 mode #   1

     Self-consistent Calculation

      iter #   1 total cpu time :    66.5 secs   av.it.:   5.7
      thresh= 1.000E-02 alpha_mix =  0.700 |ddv_scf|^2 =  1.054E-05

      iter #   2 total cpu time :    67.8 secs   av.it.:  10.5
      thresh= 3.247E-04 alpha_mix =  0.700 |ddv_scf|^2 =  2.802E-05

      iter #   3 total cpu time :    69.0 secs   av.it.:   9.1
      thresh= 5.293E-04 alpha_mix =  0.700 |ddv_scf|^2 =  1.882E-07

      iter #   4 total cpu time :    70.3 secs   av.it.:   9.9
      thresh= 4.339E-05 alpha_mix =  0.700 |ddv_scf|^2 =  3.693E-09

      iter #   5 total cpu time :    71.6 secs   av.it.:  10.4
      thresh= 6.077E-06 alpha_mix =  0.700 |ddv_scf|^2 =  6.400E-10

      iter #   6 total cpu time :    72.9 secs   av.it.:  10.4
      thresh= 2.530E-06 alpha_mix =  0.700 |ddv_scf|^2 =  9.400E-12

      iter #   7 total cpu time :    74.2 secs   av.it.:  10.6
      thresh= 3.066E-07 alpha_mix =  0.700 |ddv_scf|^2 =  3.492E-13

     End of self-consistent calculation

     Convergence has been achieved 


     Representation #  2 mode #   2

     Self-consistent Calculation

      iter #   1 total cpu time :    75.2 secs   av.it.:   5.8
      thresh= 1.000E-02 alpha_mix =  0.700 |ddv_scf|^2 =  1.891E-05

      iter #   2 total cpu time :    76.5 secs   av.it.:  10.4
      thresh= 4.348E-04 alpha_mix =  0.700 |ddv_scf|^2 =  5.462E-05

      iter #   3 total cpu time :    77.6 secs   av.it.:   9.0
      thresh= 7.390E-04 alpha_mix =  0.700 |ddv_scf|^2 =  1.257E-07

      iter #   4 total cpu time :    78.9 secs   av.it.:  10.2
      thresh= 3.546E-05 alpha_mix =  0.700 |ddv_scf|^2 =  4.168E-09

      iter #   5 total cpu time :    80.2 secs   av.it.:  10.4
      thresh= 6.456E-06 alpha_mix =  0.700 |ddv_scf|^2 =  8.506E-10

      iter #   6 total cpu time :    81.5 secs   av.it.:  10.3
      thresh= 2.917E-06 alpha_mix =  0.700 |ddv_scf|^2 =  8.729E-12

      iter #   7 total cpu time :    82.8 secs   av.it.:  10.6
      thresh= 2.955E-07 alpha_mix =  0.700 |ddv_scf|^2 =  3.045E-13

     End of self-consistent calculation

     Convergence has been achieved 


     Representation #  3 mode #   3

     Self-consistent Calculation

      iter #   1 total cpu time :    83.8 secs   av.it.:   5.7
      thresh= 1.000E-02 alpha_mix =  0.700 |ddv_scf|^2 =  1.482E-05

      iter #   2 total cpu time :    85.1 secs   av.it.:  10.4
      thresh= 3.850E-04 alpha_mix =  0.700 |ddv_scf|^2 =  4.024E-05

      iter #   3 total cpu time :    86.4 secs   av.it.:   9.0
      thresh= 6.343E-04 alpha_mix =  0.700 |ddv_scf|^2 =  2.198E-07

      iter #   4 total cpu time :    87.7 secs   av.it.:  10.0
      thresh= 4.689E-05 alpha_mix =  0.700 |ddv_scf|^2 =  4.248E-09

      iter #   5 total cpu time :    89.1 secs   av.it.:  10.4
      thresh= 6.518E-06 alpha_mix =  0.700 |ddv_scf|^2 =  8.283E-10

      iter #   6 total cpu time :    90.4 secs   av.it.:  10.3
      thresh= 2.878E-06 alpha_mix =  0.700 |ddv_scf|^2 =  6.106E-12

      iter #   7 total cpu time :    91.7 secs   av.it.:  10.5
      thresh= 2.471E-07 alpha_mix =  0.700 |ddv_scf|^2 =  1.777E-13

     End of self-consistent calculation

     Convergence has been achieved 


     Representation #  4 mode #   4

     Self-consistent Calculation

      iter #   1 total cpu time :    92.7 secs   av.it.:   5.5
      thresh= 1.000E-02 alpha_mix =  0.700 |ddv_scf|^2 =  6.450E-06

      iter #   2 total cpu time :    94.0 secs   av.it.:  10.7
      thresh= 2.540E-04 alpha_mix =  0.700 |ddv_scf|^2 =  1.361E-05

      iter #   3 total cpu time :    95.2 secs   av.it.:   9.4
      thresh= 3.689E-04 alpha_mix =  0.700 |ddv_scf|^2 =  2.949E-07

      iter #   4 total cpu time :    96.5 secs   av.it.:   9.8
      thresh= 5.430E-05 alpha_mix =  0.700 |ddv_scf|^2 =  3.640E-09

      iter #   5 total cpu time :    97.8 secs   av.it.:  10.5
      thresh= 6.033E-06 alpha_mix =  0.700 |ddv_scf|^2 =  6.816E-10

      iter #   6 total cpu time :    99.1 secs   av.it.:  10.4
      thresh= 2.611E-06 alpha_mix =  0.700 |ddv_scf|^2 =  3.977E-12

      iter #   7 total cpu time :   100.4 secs   av.it.:  10.7
      thresh= 1.994E-07 alpha_mix =  0.700 |ddv_scf|^2 =  1.797E-13

     End of self-consistent calculation

     Convergence has been achieved 


     Representation #  5 mode #   5

     Self-consistent Calculation

      iter #   1 total cpu time :   101.5 secs   av.it.:   5.2
      thresh= 1.000E-02 alpha_mix =  0.700 |ddv_scf|^2 =  6.676E-07

      iter #   2 total cpu time :   102.8 secs   av.it.:  10.4
      thresh= 8.170E-05 alpha_mix =  0.700 |ddv_scf|^2 =  1.088E-07

      iter #   3 total cpu time :   104.1 secs   av.it.:  10.1
      thresh= 3.298E-05 alpha_mix =  0.700 |ddv_scf|^2 =  1.452E-09

      iter #   4 total cpu time :   105.4 secs   av.it.:   9.6
      thresh= 3.811E-06 alpha_mix =  0.700 |ddv_scf|^2 =  3.363E-12

      iter #   5 total cpu time :   106.9 secs   av.it.:  10.0
      thresh= 1.834E-07 alpha_mix =  0.700 |ddv_scf|^2 =  9.385E-14

     End of self-consistent calculation

     Convergence has been achieved 


     Representation #  6 mode #   6

     Self-consistent Calculation

      iter #   1 total cpu time :   107.9 secs   av.it.:   5.2
      thresh= 1.000E-02 alpha_mix =  0.700 |ddv_scf|^2 =  6.676E-07

      iter #   2 total cpu time :   109.2 secs   av.it.:  10.4
[...]
        k(   59) = (  -0.8750000   0.1250000  -0.1250000), wk =   0.0625000
        k(   60) = (  -1.3750000  -0.8750000  -0.1250000), wk =   0.0000000
        k(   61) = (  -1.1250000   0.3750000  -0.3750000), wk =   0.0625000
        k(   62) = (  -1.6250000  -0.6250000  -0.3750000), wk =   0.0000000
        k(   63) = (  -0.3750000   0.3750000   1.1250000), wk =   0.0625000
        k(   64) = (  -0.8750000  -0.6250000   1.1250000), wk =   0.0000000

     Dense  grid:    17153 G-vectors     FFT dimensions: (  36,  36,  36)

     Smooth grid:     5985 G-vectors     FFT dimensions: (  25,  25,  25)

     Estimated max dynamical RAM per process >       1.51MB

     Estimated total allocated dynamical RAM >       6.05MB

     The potential is recalculated from file :
     ./_ph0/silicon.10.300.save/charge-density.dat

     Starting wfc are    8 atomic wfcs

     Band Structure Calculation
     Davidson diagonalization with overlap

     ethr =  1.25E-10,  avg # of iterations = 12.1

     total cpu time spent up to now is       10.5 secs

     End of band structure calculation

          k =-0.1250 0.1250 0.1250 (   752 PWs)   bands (ev):

    -5.6021   4.4848   5.7939   5.7939

          k =-0.6250-0.8750 0.1250 (   751 PWs)   bands (ev):

    -2.3742  -0.8239   2.0687   3.1558

          k =-0.3750 0.3750-0.1250 (   757 PWs)   bands (ev):

    -4.5668   1.4769   3.7922   5.3114

          k =-0.8750-0.6250-0.1250 (   751 PWs)   bands (ev):

    -2.3742  -0.8239   2.0687   3.1558

          k = 0.3750-0.3750 0.6250 (   759 PWs)   bands (ev):

    -3.4146  -0.6211   3.8175   4.5326

          k =-0.1250-1.3750 0.6250 (   759 PWs)   bands (ev):

    -2.9151  -0.5264   2.1311   4.2124

          k = 0.1250-0.1250 0.3750 (   765 PWs)   bands (ev):

    -5.0699   2.8646   4.7764   4.8458

          k =-0.3750-1.1250 0.3750 (   759 PWs)   bands (ev):

    -2.9151  -0.5264   2.1311   4.2124

          k =-0.1250 0.6250 0.1250 (   760 PWs)   bands (ev):

    -4.0301   1.1512   3.4386   3.8954

          k =-0.6250-0.3750 0.1250 (   759 PWs)   bands (ev):

    -3.6100   0.2658   2.7930   4.1720

          k = 0.6250-0.1250 0.8750 (   751 PWs)   bands (ev):

    -2.3742  -0.8239   2.0687   3.1558

          k = 0.1250-1.1250 0.8750 (   759 PWs)   bands (ev):

    -2.5457  -0.7245   2.6850   3.4251

          k = 0.3750 0.1250 0.6250 (   759 PWs)   bands (ev):

    -3.6100   0.2658   2.7930   4.1720

          k =-0.1250-0.8750 0.6250 (   751 PWs)   bands (ev):

    -2.3742  -0.8239   2.0687   3.1558

          k =-0.1250-0.8750 0.1250 (   759 PWs)   bands (ev):

    -2.5457  -0.7245   2.6850   3.4251

          k =-0.6250-1.8750 0.1250 (   760 PWs)   bands (ev):

    -4.0301   1.1512   3.4386   3.8954

          k =-0.3750 0.3750 0.3750 (   763 PWs)   bands (ev):

    -4.1292   0.1727   5.0018   5.0018

          k =-0.8750-0.6250 0.3750 (   759 PWs)   bands (ev):

    -3.6100   0.2658   2.7930   4.1720

          k = 0.3750-0.3750 1.1250 (   759 PWs)   bands (ev):

    -2.9151  -0.5264   2.1311   4.2124

          k =-0.1250-1.3750 1.1250 (   751 PWs)   bands (ev):

    -2.3742  -0.8239   2.0687   3.1558

          k = 0.1250-0.3750 0.3750 (   757 PWs)   bands (ev):

    -4.5668   1.4769   3.7922   5.3114

          k =-0.3750-1.3750 0.3750 (   759 PWs)   bands (ev):

    -3.4146  -0.6211   3.8175   4.5326

          k = 0.3750-0.3750-0.1250 (   757 PWs)   bands (ev):

    -4.5668   1.4769   3.7922   5.3114

          k =-0.1250-1.3750-0.1250 (   760 PWs)   bands (ev):

    -4.0301   1.1512   3.4386   3.8954

          k =-0.6250 0.3750-0.3750 (   759 PWs)   bands (ev):

    -3.4146  -0.6211   3.8175   4.5326

          k =-1.1250-0.6250-0.3750 (   759 PWs)   bands (ev):

    -3.6100   0.2658   2.7930   4.1720

          k =-0.3750 0.3750 0.6250 (   759 PWs)   bands (ev):

    -3.4146  -0.6211   3.8175   4.5326

          k =-0.8750-0.6250 0.6250 (   757 PWs)   bands (ev):

    -4.5668   1.4769   3.7922   5.3114

          k =-0.3750 0.1250-0.1250 (   765 PWs)   bands (ev):

    -5.0699   2.8646   4.7764   4.8458

          k =-0.8750-0.8750-0.1250 (   759 PWs)   bands (ev):

    -2.5457  -0.7245   2.6850   3.4251

          k =-0.1250 0.1250 0.3750 (   765 PWs)   bands (ev):

    -5.0699   2.8646   4.7764   4.8458

          k =-0.6250-0.8750 0.3750 (   759 PWs)   bands (ev):

    -3.6100   0.2658   2.7930   4.1720

          k = 0.1250 0.6250-0.1250 (   760 PWs)   bands (ev):

    -4.0301   1.1512   3.4386   3.8954

          k =-0.3750-0.3750-0.1250 (   757 PWs)   bands (ev):

    -4.5668   1.4769   3.7922   5.3114

          k = 0.6250 0.1250-0.1250 (   760 PWs)   bands (ev):

    -4.0301   1.1512   3.4386   3.8954

          k = 0.1250-0.8750-0.1250 (   759 PWs)   bands (ev):

    -2.5457  -0.7245   2.6850   3.4251

          k =-0.8750 0.1250-0.6250 (   751 PWs)   bands (ev):

    -2.3742  -0.8239   2.0687   3.1558

          k =-1.3750-0.8750-0.6250 (   757 PWs)   bands (ev):

    -4.5668   1.4769   3.7922   5.3114

          k = 0.8750-0.1250 0.6250 (   751 PWs)   bands (ev):

    -2.3742  -0.8239   2.0687   3.1558

          k = 0.3750-1.1250 0.6250 (   759 PWs)   bands (ev):

    -3.6100   0.2658   2.7930   4.1720

          k =-0.6250 0.1250 0.8750 (   751 PWs)   bands (ev):

    -2.3742  -0.8239   2.0687   3.1558

          k =-1.1250-0.8750 0.8750 (   752 PWs)   bands (ev):

    -5.6021   4.4848   5.7939   5.7939

          k =-0.1250 0.8750 0.6250 (   751 PWs)   bands (ev):

    -2.3742  -0.8239   2.0687   3.1558

          k =-0.6250-0.1250 0.6250 (   759 PWs)   bands (ev):

    -2.9151  -0.5264   2.1311   4.2124

          k = 0.1250 0.8750-0.6250 (   751 PWs)   bands (ev):

    -2.3742  -0.8239   2.0687   3.1558

          k =-0.3750-0.1250-0.6250 (   759 PWs)   bands (ev):

    -3.6100   0.2658   2.7930   4.1720

          k =-0.6250-0.1250-0.3750 (   759 PWs)   bands (ev):

    -3.6100   0.2658   2.7930   4.1720

          k =-1.1250-1.1250-0.3750 (   760 PWs)   bands (ev):

    -4.0301   1.1512   3.4386   3.8954

          k = 0.6250 0.1250 0.3750 (   759 PWs)   bands (ev):

    -3.6100   0.2658   2.7930   4.1720

          k = 0.1250-0.8750 0.3750 (   751 PWs)   bands (ev):

    -2.3742  -0.8239   2.0687   3.1558

          k =-0.3750-0.1250 0.6250 (   759 PWs)   bands (ev):

    -3.6100   0.2658   2.7930   4.1720

          k =-0.8750-1.1250 0.6250 (   765 PWs)   bands (ev):

    -5.0699   2.8646   4.7764   4.8458

          k = 0.1250 0.6250 0.3750 (   759 PWs)   bands (ev):

    -3.6100   0.2658   2.7930   4.1720

          k =-0.3750-0.3750 0.3750 (   763 PWs)   bands (ev):

    -4.1292   0.1727   5.0018   5.0018

          k =-0.1250 0.6250-0.3750 (   759 PWs)   bands (ev):

    -3.6100   0.2658   2.7930   4.1720

          k =-0.6250-0.3750-0.3750 (   759 PWs)   bands (ev):

    -3.4146  -0.6211   3.8175   4.5326

          k = 0.1250-0.8750-0.1250 (   759 PWs)   bands (ev):

    -2.5457  -0.7245   2.6850   3.4251

          k =-0.3750-1.8750-0.1250 (   765 PWs)   bands (ev):

    -5.0699   2.8646   4.7764   4.8458

          k =-0.8750 0.1250-0.1250 (   759 PWs)   bands (ev):

    -2.5457  -0.7245   2.6850   3.4251

          k =-1.3750-0.8750-0.1250 (   751 PWs)   bands (ev):

    -2.3742  -0.8239   2.0687   3.1558

          k =-1.1250 0.3750-0.3750 (   759 PWs)   bands (ev):

    -2.9151  -0.5264   2.1311   4.2124

          k =-1.6250-0.6250-0.3750 (   759 PWs)   bands (ev):

    -3.4146  -0.6211   3.8175   4.5326

          k =-0.3750 0.3750 1.1250 (   759 PWs)   bands (ev):

    -2.9151  -0.5264   2.1311   4.2124

          k =-0.8750-0.6250 1.1250 (   765 PWs)   bands (ev):

    -5.0699   2.8646   4.7764   4.8458

     highest occupied level (ev):     5.7939

     Writing output data file silicon.10.300.save

                                                                                

     bravais-lattice index     =            2
     lattice parameter (alat)  =      10.3000  a.u.
     unit-cell volume          =     273.1818 (a.u.)^3
     number of atoms/cell      =            2
     number of atomic types    =            1
     kinetic-energy cut-off    =      30.0000  Ry
     charge density cut-off    =     240.0000  Ry
     convergence threshold     =      1.0E-12
     beta                      =       0.7000
     number of iterations used =            4
     Exchange-correlation      = SLA  PW   PBE  PBE ( 1  4  3  4 0 0)


     celldm(1)=   10.30000  celldm(2)=    0.00000  celldm(3)=    0.00000
     celldm(4)=    0.00000  celldm(5)=    0.00000  celldm(6)=    0.00000

     crystal axes: (cart. coord. in units of alat)
               a(1) = ( -0.5000  0.0000  0.5000 )  
               a(2) = (  0.0000  0.5000  0.5000 )  
               a(3) = ( -0.5000  0.5000  0.0000 )  

     reciprocal axes: (cart. coord. in units 2 pi/alat)
               b(1) = ( -1.0000 -1.0000  1.0000 )  
               b(2) = (  1.0000  1.0000  1.0000 )  
               b(3) = ( -1.0000  1.0000 -1.0000 )  


     Atoms inside the unit cell: 

     Cartesian axes

     site n.  atom      mass           positions (alat units)
        1     Si  28.0860   tau(    1) = (    0.00000    0.00000    0.00000  )
        2     Si  28.0860   tau(    2) = (    0.25000    0.25000    0.25000  )

     Computing dynamical matrix for 
                    q = (  -0.5000000  -1.0000000   0.0000000 )

      8 Sym.Ops. (no q -> -q+G )


     G cutoff =  644.9499  (   4288 G-vectors)     FFT grid: ( 36, 36, 36)
     G cutoff =  322.4749  (   1497 G-vectors)  smooth grid: ( 25, 25, 25)
     number of k points=    64

     PseudoPot. # 1 for Si read from file:
     /home/s1333534/quantum_espresso/qe-6.1/pseudo/si_pbe_v1.uspp.F.UPF.txt
     MD5 check sum: a056efeee980c13900f22a371efd63c1
     Pseudo is Ultrasoft + core correction, Zval =  4.0
     Generated by new atomic code, or converted to UPF format
     Using radial grid of  899 points,  6 beta functions with: 
                l(1) =   0
                l(2) =   0
                l(3) =   1
                l(4) =   1
                l(5) =   2
                l(6) =   2
     Q(r) pseudized with  8 coefficients,  rinner =    0.900   0.900   0.900
                                                       0.900   0.900


     Atomic displacements:
     There are   3 irreducible representations

     Representation     1      2 modes -  To be done

     Representation     2      2 modes -  To be done

     Representation     3      2 modes -  To be done



     Alpha used in Ewald sum =   2.5000
     PHONON       :  2m 2.49s CPU     2m31.22s WALL



     Representation #  1 modes #   1  2

     Self-consistent Calculation

      iter #   1 total cpu time :   151.9 secs   av.it.:   5.7
      thresh= 1.000E-02 alpha_mix =  0.700 |ddv_scf|^2 =  1.092E-06

      iter #   2 total cpu time :   153.2 secs   av.it.:  11.6
      thresh= 1.045E-04 alpha_mix =  0.700 |ddv_scf|^2 =  6.192E-07

      iter #   3 total cpu time :   154.0 secs   av.it.:  11.1
      thresh= 7.869E-05 alpha_mix =  0.700 |ddv_scf|^2 =  5.912E-10

      iter #   4 total cpu time :   154.8 secs   av.it.:  11.0
      thresh= 2.431E-06 alpha_mix =  0.700 |ddv_scf|^2 =  2.621E-12

      iter #   5 total cpu time :   155.5 secs   av.it.:  11.1
      thresh= 1.619E-07 alpha_mix =  0.700 |ddv_scf|^2 =  6.914E-14

     End of self-consistent calculation

     Convergence has been achieved 


     Representation #  2 modes #   3  4

     Self-consistent Calculation

      iter #   1 total cpu time :   156.2 secs   av.it.:   5.7
      thresh= 1.000E-02 alpha_mix =  0.700 |ddv_scf|^2 =  1.688E-06

      iter #   2 total cpu time :   157.1 secs   av.it.:  11.6
      thresh= 1.299E-04 alpha_mix =  0.700 |ddv_scf|^2 =  2.268E-06

      iter #   3 total cpu time :   157.9 secs   av.it.:  10.9
      thresh= 1.506E-04 alpha_mix =  0.700 |ddv_scf|^2 =  6.968E-10

      iter #   4 total cpu time :   158.7 secs   av.it.:  11.0
      thresh= 2.640E-06 alpha_mix =  0.700 |ddv_scf|^2 =  1.028E-11

      iter #   5 total cpu time :   159.5 secs   av.it.:  11.1
      thresh= 3.206E-07 alpha_mix =  0.700 |ddv_scf|^2 =  1.747E-13

     End of self-consistent calculation

     Convergence has been achieved 


     Representation #  3 modes #   5  6

     Self-consistent Calculation

      iter #   1 total cpu time :   160.2 secs   av.it.:   5.3
      thresh= 1.000E-02 alpha_mix =  0.700 |ddv_scf|^2 =  4.436E-07

      iter #   2 total cpu time :   161.0 secs   av.it.:  11.6
      thresh= 6.660E-05 alpha_mix =  0.700 |ddv_scf|^2 =  2.594E-07

      iter #   3 total cpu time :   161.9 secs   av.it.:  11.0
      thresh= 5.093E-05 alpha_mix =  0.700 |ddv_scf|^2 =  5.148E-10

      iter #   4 total cpu time :   162.7 secs   av.it.:  11.1
      thresh= 2.269E-06 alpha_mix =  0.700 |ddv_scf|^2 =  5.984E-12

      iter #   5 total cpu time :   163.4 secs   av.it.:  11.1
      thresh= 2.446E-07 alpha_mix =  0.700 |ddv_scf|^2 =  8.345E-14

     End of self-consistent calculation

     Convergence has been achieved 

     Number of q in the star =    6
     List of q in the star:
          1  -0.500000000  -1.000000000   0.000000000
          2   0.000000000   1.000000000   0.500000000
          3   0.000000000  -1.000000000  -0.500000000
          4   0.500000000   1.000000000   0.000000000
          5  -1.000000000  -0.500000000   0.000000000
          6   0.000000000  -0.500000000  -1.000000000

     Diagonalizing the dynamical matrix

     q = (   -0.500000000  -1.000000000   0.000000000 ) 

 **************************************************************************
     freq (    1) =       5.992547 [THz] =     199.889862 [cm-1]
     freq (    2) =       5.992547 [THz] =     199.889862 [cm-1]
     freq (    3) =      10.442920 [THz] =     348.338330 [cm-1]
     freq (    4) =      10.442920 [THz] =     348.338330 [cm-1]
     freq (    5) =      13.753412 [THz] =     458.764439 [cm-1]
     freq (    6) =      13.753412 [THz] =     458.764439 [cm-1]
 **************************************************************************

     init_run     :      1.23s CPU      1.31s WALL (       7 calls)
     electrons    :      7.14s CPU      7.71s WALL (       7 calls)

     Called by init_run:
     wfcinit      :      0.00s CPU      0.03s WALL (       7 calls)
     potinit      :      0.07s CPU      0.10s WALL (       7 calls)

     Called by electrons:
     c_bands      :      7.14s CPU      7.71s WALL (       7 calls)
     v_of_rho     :      0.06s CPU      0.06s WALL (       8 calls)
     newd         :      0.12s CPU      0.12s WALL (       8 calls)

     Called by c_bands:
     init_us_2    :      1.62s CPU      1.57s WALL (   16040 calls)
     cegterg      :      5.98s CPU      6.44s WALL (     796 calls)

     Called by sum_band:

     Called by *egterg:
     h_psi        :     68.60s CPU     73.41s WALL (  154403 calls)
     s_psi        :      5.62s CPU      6.89s WALL (  311208 calls)
     g_psi        :      0.05s CPU      0.07s WALL (    9666 calls)
     cdiaghg      :      0.56s CPU      0.55s WALL (   10462 calls)

     Called by h_psi:
     h_psi:pot    :     68.17s CPU     72.90s WALL (  154403 calls)
     h_psi:calbec :      3.41s CPU      3.98s WALL (  154403 calls)
     vloc_psi     :     60.12s CPU     64.82s WALL (  154403 calls)
     add_vuspsi   :      4.28s CPU      3.63s WALL (  154403 calls)

     General routines
     calbec       :      7.94s CPU      8.42s WALL (  345660 calls)
     fft          :      1.47s CPU      1.54s WALL (    5265 calls)
     ffts         :      0.21s CPU      0.22s WALL (    3320 calls)
     fftw         :     63.29s CPU     67.61s WALL ( 1383416 calls)
     interpolate  :      0.20s CPU      0.21s WALL (     572 calls)
     davcio       :      0.31s CPU      0.88s WALL (   69876 calls)

     Parallel routines
     fft_scatter  :     16.18s CPU     19.53s WALL ( 1392001 calls)

     PHONON       :  2m11.76s CPU     2m43.94s WALL

     INITIALIZATION: 
     phq_setup    :      0.22s CPU      0.37s WALL (       8 calls)
     phq_init     :      6.72s CPU      7.05s WALL (       8 calls)

     phq_init     :      6.72s CPU      7.05s WALL (       8 calls)
     set_drhoc    :      1.82s CPU      1.84s WALL (      24 calls)
     init_vloc    :      0.03s CPU      0.03s WALL (       8 calls)
     init_us_1    :      0.97s CPU      0.98s WALL (       8 calls)
     newd         :      0.12s CPU      0.12s WALL (       8 calls)
     dvanqq       :      1.17s CPU      1.17s WALL (       8 calls)
     drho         :      2.59s CPU      2.66s WALL (       8 calls)

     DYNAMICAL MATRIX:
     dynmat0      :      1.71s CPU      1.91s WALL (       8 calls)
     phqscf       :    111.85s CPU    138.29s WALL (       8 calls)
     dynmatrix    :      0.01s CPU      0.21s WALL (       8 calls)

     phqscf       :    111.85s CPU    138.29s WALL (       8 calls)
     solve_linter :    110.99s CPU    135.90s WALL (      32 calls)
     drhodv       :      0.57s CPU      0.59s WALL (      32 calls)

     dynmat0      :      1.71s CPU      1.91s WALL (       8 calls)
     dynmat_us    :      0.39s CPU      0.39s WALL (       8 calls)
     d2ionq       :      0.04s CPU      0.04s WALL (       8 calls)
     dynmatcc     :      1.27s CPU      1.29s WALL (       8 calls)

     dynmat_us    :      0.39s CPU      0.39s WALL (       8 calls)
     addusdynmat  :      0.00s CPU      0.00s WALL (       8 calls)

     phqscf       :    111.85s CPU    138.29s WALL (       8 calls)
     solve_linter :    110.99s CPU    135.90s WALL (      32 calls)

     solve_linter :    110.99s CPU    135.90s WALL (      32 calls)
     dvqpsi_us    :      2.15s CPU      2.29s WALL (    2508 calls)
     ortho        :      0.97s CPU      1.08s WALL (   13630 calls)
     cgsolve      :     76.13s CPU     82.68s WALL (   13630 calls)
     incdrhoscf   :      6.32s CPU      6.89s WALL (   13630 calls)
     addusddens   :      7.05s CPU      7.11s WALL (     202 calls)
     vpsifft      :      4.51s CPU      4.91s WALL (   11002 calls)
     dv_of_drho   :      1.26s CPU      1.30s WALL (     256 calls)
     mix_pot      :      0.30s CPU      8.87s WALL (     175 calls)
     psymdvscf    :      4.10s CPU      4.15s WALL (     170 calls)
     newdq        :      7.64s CPU      7.67s WALL (     175 calls)
     adddvscf     :      0.46s CPU      0.45s WALL (   11122 calls)
     drhodvus     :      0.01s CPU      0.02s WALL (      32 calls)

     dvqpsi_us    :      2.15s CPU      2.29s WALL (    2508 calls)
     dvqpsi_us_on :      0.91s CPU      0.94s WALL (    2508 calls)

     cgsolve      :     76.13s CPU     82.68s WALL (   13630 calls)
     ch_psi       :     75.05s CPU     80.96s WALL (  143145 calls)

     ch_psi       :     75.05s CPU     80.96s WALL (  143145 calls)
     h_psi        :     68.60s CPU     73.41s WALL (  154403 calls)
     last         :      9.05s CPU      9.15s WALL (  143145 calls)

     h_psi        :     68.60s CPU     73.41s WALL (  154403 calls)
     add_vuspsi   :      4.28s CPU      3.63s WALL (  154403 calls)

     incdrhoscf   :      6.32s CPU      6.89s WALL (   13630 calls)
     addusdbec    :      0.47s CPU      0.52s WALL (   16078 calls)

     drhodvus     :      0.01s CPU      0.02s WALL (      32 calls)

      General routines
     calbec       :      7.94s CPU      8.42s WALL (  345660 calls)
     fft          :      1.47s CPU      1.54s WALL (    5265 calls)
     ffts         :      0.21s CPU      0.22s WALL (    3320 calls)
     fftw         :     63.29s CPU     67.61s WALL ( 1383416 calls)
     davcio       :      0.31s CPU      0.88s WALL (   69876 calls)
     write_rec    :      0.23s CPU      9.98s WALL (     207 calls)


     PHONON       :  2m11.76s CPU     2m43.94s WALL


   This run was terminated on:  15:38:20  10Nov2017            

=------------------------------------------------------------------------------=
   JOB DONE.
=------------------------------------------------------------------------------=
