
     Program PHONON v.6.1 (svn rev. 13369) starts on  9Nov2017 at  1: 8:30 

     This program is part of the open-source Quantum ESPRESSO suite
     for quantum simulation of materials; please cite
         "P. Giannozzi et al., J. Phys.:Condens. Matter 21 395502 (2009);
          URL http://www.quantum-espresso.org", 
     in publications or presentations arising from this work. More details at
     http://www.quantum-espresso.org/quote

     Parallel version (MPI), running on     4 processors
     R & G space division:  proc/nbgrp/npool/nimage =       4

     Reading data from directory:
     ./silicon.10.23.save

   Info: using nr1, nr2, nr3 values from input

   Info: using nr1, nr2, nr3 values from input

     IMPORTANT: XC functional enforced from input :
     Exchange-correlation      = SLA  PW   PBE  PBE ( 1  4  3  4 0 0)
     Any further DFT definition will be discarded
     Please, verify this is what you really want


     Parallelization info
     --------------------
     sticks:   dense  smooth     PW     G-vecs:    dense   smooth      PW
     Min          63      63     21                  682      682     133
     Max          64      64     22                  686      686     136
     Sum         253     253     85                 2733     2733     537


     Check: negative/imaginary core charge=   -0.000006    0.000000


     Dynamical matrices for ( 4, 4, 4)  uniform grid of q-points
     (   8q-points):
       N         xq(1)         xq(2)         xq(3) 
       1   0.000000000   0.000000000   0.000000000
       2  -0.250000000   0.250000000  -0.250000000
       3   0.500000000  -0.500000000   0.500000000
       4   0.000000000   0.500000000   0.000000000
       5   0.750000000  -0.250000000   0.750000000
       6   0.500000000   0.000000000   0.500000000
       7   0.000000000  -1.000000000   0.000000000
       8  -0.500000000  -1.000000000   0.000000000

     Calculation of q =    0.0000000   0.0000000   0.0000000

                                                                                

     bravais-lattice index     =            2
     lattice parameter (alat)  =      10.2300  a.u.
     unit-cell volume          =     267.6498 (a.u.)^3
     number of atoms/cell      =            2
     number of atomic types    =            1
     kinetic-energy cut-off    =      18.0000  Ry
     charge density cut-off    =      72.0000  Ry
     convergence threshold     =      1.0E-12
     beta                      =       0.7000
     number of iterations used =            4
     Exchange-correlation      = SLA  PW   PBE  PBE ( 1  4  3  4 0 0)


     celldm(1)=   10.23000  celldm(2)=    0.00000  celldm(3)=    0.00000
     celldm(4)=    0.00000  celldm(5)=    0.00000  celldm(6)=    0.00000

     crystal axes: (cart. coord. in units of alat)
               a(1) = ( -0.5000  0.0000  0.5000 )  
               a(2) = (  0.0000  0.5000  0.5000 )  
               a(3) = ( -0.5000  0.5000  0.0000 )  

     reciprocal axes: (cart. coord. in units 2 pi/alat)
               b(1) = ( -1.0000 -1.0000  1.0000 )  
               b(2) = (  1.0000  1.0000  1.0000 )  
               b(3) = ( -1.0000  1.0000 -1.0000 )  


     Atoms inside the unit cell: 

     Cartesian axes

     site n.  atom      mass           positions (alat units)
        1     Si  28.0860   tau(    1) = (    0.00000    0.00000    0.00000  )
        2     Si  28.0860   tau(    2) = (    0.25000    0.25000    0.25000  )

     Computing dynamical matrix for 
                    q = (   0.0000000   0.0000000   0.0000000 )

     49 Sym.Ops. (with q -> -q+G )


     G cutoff =  190.8640  (    683 G-vectors)     FFT grid: ( 20, 20, 20)
     number of k points=    10

     PseudoPot. # 1 for Si read from file:
     /home/max/quantum_espresso/qe-6.1/pseudo/si_pbe_v1.uspp.F.UPF.txt
     MD5 check sum: a056efeee980c13900f22a371efd63c1
     Pseudo is Ultrasoft + core correction, Zval =  4.0
     Generated by new atomic code, or converted to UPF format
     Using radial grid of  899 points,  6 beta functions with: 
                l(1) =   0
                l(2) =   0
                l(3) =   1
                l(4) =   1
                l(5) =   2
                l(6) =   2
     Q(r) pseudized with  8 coefficients,  rinner =    0.900   0.900   0.900
                                                       0.900   0.900

     Mode symmetry, O_h (m-3m)  point group:


     Electric field:
     Dielectric constant
     Born effective charges in two ways 


     Atomic displacements:
     There are   2 irreducible representations

     Representation     1      3 modes -T_2g G_25' G_5+  To be done

     Representation     2      3 modes -T_1u G_15  G_4-  To be done



     Alpha used in Ewald sum =   0.7000
     PHONON       :     0.39s CPU         0.40s WALL


     Electric Fields Calculation

      iter #   1 total cpu time :     0.8 secs   av.it.:   5.5
      thresh= 1.000E-02 alpha_mix =  0.700 |ddv_scf|^2 =  9.013E-07

      iter #   2 total cpu time :     0.9 secs   av.it.:   9.9
      thresh= 9.494E-05 alpha_mix =  0.700 |ddv_scf|^2 =  5.350E-08

      iter #   3 total cpu time :     1.1 secs   av.it.:   9.8
      thresh= 2.313E-05 alpha_mix =  0.700 |ddv_scf|^2 =  3.995E-09

      iter #   4 total cpu time :     1.3 secs   av.it.:   9.0
      thresh= 6.320E-06 alpha_mix =  0.700 |ddv_scf|^2 =  2.249E-11

      iter #   5 total cpu time :     1.4 secs   av.it.:   9.1
      thresh= 4.743E-07 alpha_mix =  0.700 |ddv_scf|^2 =  1.166E-14

     End of electric fields calculation

          Dielectric constant in cartesian axis 

          (      13.699145858       0.000000000       0.000000000 )
          (      -0.000000000      13.699145858       0.000000000 )
          (       0.000000000       0.000000000      13.699145858 )

          Effective charges (d Force / dE) in cartesian axis

           atom      1   Si 
      Ex  (       -0.03693        0.00000       -0.00000 )
      Ey  (        0.00000       -0.03693       -0.00000 )
      Ez  (        0.00000        0.00000       -0.03693 )
           atom      2   Si 
      Ex  (       -0.03693        0.00000        0.00000 )
      Ey  (        0.00000       -0.03693        0.00000 )
      Ez  (        0.00000       -0.00000       -0.03693 )


     Representation #  1 modes #   1  2  3

     Self-consistent Calculation

      iter #   1 total cpu time :     1.8 secs   av.it.:   5.0
      thresh= 1.000E-02 alpha_mix =  0.700 |ddv_scf|^2 =  2.102E-07

      iter #   2 total cpu time :     2.0 secs   av.it.:   9.9
      thresh= 4.585E-05 alpha_mix =  0.700 |ddv_scf|^2 =  1.250E-08

      iter #   3 total cpu time :     2.2 secs   av.it.:   9.2
      thresh= 1.118E-05 alpha_mix =  0.700 |ddv_scf|^2 =  7.984E-10

      iter #   4 total cpu time :     2.3 secs   av.it.:   9.0
      thresh= 2.826E-06 alpha_mix =  0.700 |ddv_scf|^2 =  1.749E-12

      iter #   5 total cpu time :     2.5 secs   av.it.:   9.5
      thresh= 1.323E-07 alpha_mix =  0.700 |ddv_scf|^2 =  1.171E-14

     End of self-consistent calculation

     Convergence has been achieved 


     Representation #  2 modes #   4  5  6

     Self-consistent Calculation

      iter #   1 total cpu time :     2.7 secs   av.it.:   5.0
      thresh= 1.000E-02 alpha_mix =  0.700 |ddv_scf|^2 =  1.744E-07

      iter #   2 total cpu time :     2.9 secs   av.it.:   9.5
      thresh= 4.177E-05 alpha_mix =  0.700 |ddv_scf|^2 =  1.364E-08

      iter #   3 total cpu time :     3.1 secs   av.it.:   9.2
      thresh= 1.168E-05 alpha_mix =  0.700 |ddv_scf|^2 =  8.419E-10

      iter #   4 total cpu time :     3.3 secs   av.it.:   9.5
      thresh= 2.902E-06 alpha_mix =  0.700 |ddv_scf|^2 =  4.882E-12

      iter #   5 total cpu time :     3.4 secs   av.it.:   8.9
      thresh= 2.210E-07 alpha_mix =  0.700 |ddv_scf|^2 =  3.609E-15

     End of self-consistent calculation

     Convergence has been achieved 

     Number of q in the star =    1
     List of q in the star:
          1   0.000000000   0.000000000   0.000000000

          Dielectric constant in cartesian axis 

          (      13.699145858       0.000000000       0.000000000 )
          (      -0.000000000      13.699145858       0.000000000 )
          (       0.000000000       0.000000000      13.699145858 )

          Effective charges (d Force / dE) in cartesian axis

           atom      1   Si 
      Ex  (       -0.03693        0.00000       -0.00000 )
      Ey  (        0.00000       -0.03693       -0.00000 )
      Ez  (        0.00000        0.00000       -0.03693 )
           atom      2   Si 
      Ex  (       -0.03693        0.00000        0.00000 )
      Ey  (        0.00000       -0.03693        0.00000 )
      Ez  (        0.00000       -0.00000       -0.03693 )

          Effective charges (d P / du) in cartesian axis 

           atom      1   Si 
      Px  (       -0.07409        0.00000        0.00000 )
      Py  (        0.00000       -0.07409        0.00000 )
      Pz  (        0.00000        0.00000       -0.07409 )
           atom      2   Si 
      Px  (       -0.07409       -0.00000        0.00000 )
      Py  (       -0.00000       -0.07409        0.00000 )
      Pz  (        0.00000       -0.00000       -0.07409 )

     Diagonalizing the dynamical matrix

     q = (    0.000000000   0.000000000   0.000000000 ) 

 **************************************************************************
     freq (    1) =       1.744135 [THz] =      58.178087 [cm-1]
     freq (    2) =       1.744135 [THz] =      58.178087 [cm-1]
     freq (    3) =       1.744135 [THz] =      58.178087 [cm-1]
     freq (    4) =      15.586432 [THz] =     519.907398 [cm-1]
     freq (    5) =      15.586432 [THz] =     519.907398 [cm-1]
     freq (    6) =      15.586432 [THz] =     519.907398 [cm-1]
 **************************************************************************

     Mode symmetry, O_h (m-3m)  point group:

     freq (  1 -  3) =         58.2  [cm-1]   --> T_1u G_15  G_4- I  
     freq (  4 -  6) =        519.9  [cm-1]   --> T_2g G_25' G_5+ R  

     Calculation of q =   -0.2500000   0.2500000  -0.2500000

   Info: using nr1, nr2, nr3 values from input

   Info: using nr1, nr2, nr3 values from input

     Parallelization info
     --------------------
     sticks:   dense  smooth     PW     G-vecs:    dense   smooth      PW
     Min          63      63     24                  682      682     161
     Max          64      64     25                  686      686     162
     Sum         253     253     97                 2733     2733     645



     bravais-lattice index     =            2
     lattice parameter (alat)  =      10.2300  a.u.
     unit-cell volume          =     267.6498 (a.u.)^3
     number of atoms/cell      =            2
     number of atomic types    =            1
     number of electrons       =         8.00
     number of Kohn-Sham states=            4
     kinetic-energy cutoff     =      18.0000  Ry
     charge density cutoff     =      72.0000  Ry
     Exchange-correlation      = SLA  PW   PBE  PBE ( 1  4  3  4 0 0)

     celldm(1)=  10.230000  celldm(2)=   0.000000  celldm(3)=   0.000000
     celldm(4)=   0.000000  celldm(5)=   0.000000  celldm(6)=   0.000000

     crystal axes: (cart. coord. in units of alat)
               a(1) = (  -0.500000   0.000000   0.500000 )  
               a(2) = (   0.000000   0.500000   0.500000 )  
               a(3) = (  -0.500000   0.500000   0.000000 )  

     reciprocal axes: (cart. coord. in units 2 pi/alat)
               b(1) = ( -1.000000 -1.000000  1.000000 )  
               b(2) = (  1.000000  1.000000  1.000000 )  
               b(3) = ( -1.000000  1.000000 -1.000000 )  


     PseudoPot. # 1 for Si read from file:
     /home/max/quantum_espresso/qe-6.1/pseudo/si_pbe_v1.uspp.F.UPF.txt
     MD5 check sum: a056efeee980c13900f22a371efd63c1
     Pseudo is Ultrasoft + core correction, Zval =  4.0
     Generated by new atomic code, or converted to UPF format
     Using radial grid of  899 points,  6 beta functions with: 
                l(1) =   0
                l(2) =   0
                l(3) =   1
                l(4) =   1
                l(5) =   2
                l(6) =   2
     Q(r) pseudized with  8 coefficients,  rinner =    0.900   0.900   0.900
                                                       0.900   0.900

     atomic species   valence    mass     pseudopotential
        Si             4.00    28.08600     Si( 1.00)

     48 Sym. Ops., with inversion, found



   Cartesian axes

     site n.     atom                  positions (alat units)
         1           Si  tau(   1) = (   0.0000000   0.0000000   0.0000000  )
         2           Si  tau(   2) = (   0.2500000   0.2500000   0.2500000  )

     number of k points=   120

     Number of k-points >= 100: set verbosity='high' to print them.

     Dense  grid:     2733 G-vectors     FFT dimensions: (  20,  20,  20)

     Estimated max dynamical RAM per process >       0.32MB

     Estimated total allocated dynamical RAM >       1.29MB

     Check: negative/imaginary core charge=   -0.000006    0.000000

     The potential is recalculated from file :
     ./_ph0/silicon.10.23.save/charge-density.dat

     Starting wfc are    8 atomic wfcs

     Band Structure Calculation
     Davidson diagonalization with overlap

     ethr =  1.25E-10,  avg # of iterations = 11.6

     total cpu time spent up to now is        0.8 secs

     End of band structure calculation

     Number of k-points >= 100: set verbosity='high' to print the bands.

     highest occupied level (ev):     6.0042

     Writing output data file silicon.10.23.save

                                                                                

     bravais-lattice index     =            2
     lattice parameter (alat)  =      10.2300  a.u.
     unit-cell volume          =     267.6498 (a.u.)^3
     number of atoms/cell      =            2
     number of atomic types    =            1
     kinetic-energy cut-off    =      18.0000  Ry
     charge density cut-off    =      72.0000  Ry
     convergence threshold     =      1.0E-12
     beta                      =       0.7000
     number of iterations used =            4
     Exchange-correlation      = SLA  PW   PBE  PBE ( 1  4  3  4 0 0)


     celldm(1)=   10.23000  celldm(2)=    0.00000  celldm(3)=    0.00000
     celldm(4)=    0.00000  celldm(5)=    0.00000  celldm(6)=    0.00000

     crystal axes: (cart. coord. in units of alat)
               a(1) = ( -0.5000  0.0000  0.5000 )  
               a(2) = (  0.0000  0.5000  0.5000 )  
               a(3) = ( -0.5000  0.5000  0.0000 )  

     reciprocal axes: (cart. coord. in units 2 pi/alat)
               b(1) = ( -1.0000 -1.0000  1.0000 )  
               b(2) = (  1.0000  1.0000  1.0000 )  
               b(3) = ( -1.0000  1.0000 -1.0000 )  


     Atoms inside the unit cell: 

     Cartesian axes

     site n.  atom      mass           positions (alat units)
        1     Si  28.0860   tau(    1) = (    0.00000    0.00000    0.00000  )
        2     Si  28.0860   tau(    2) = (    0.25000    0.25000    0.25000  )

     Computing dynamical matrix for 
                    q = (  -0.2500000   0.2500000  -0.2500000 )

      6 Sym.Ops. (no q -> -q+G )


     G cutoff =  190.8640  (    683 G-vectors)     FFT grid: ( 20, 20, 20)
     number of k points=   120

     PseudoPot. # 1 for Si read from file:
     /home/max/quantum_espresso/qe-6.1/pseudo/si_pbe_v1.uspp.F.UPF.txt
     MD5 check sum: a056efeee980c13900f22a371efd63c1
     Pseudo is Ultrasoft + core correction, Zval =  4.0
     Generated by new atomic code, or converted to UPF format
     Using radial grid of  899 points,  6 beta functions with: 
                l(1) =   0
                l(2) =   0
                l(3) =   1
                l(4) =   1
                l(5) =   2
                l(6) =   2
     Q(r) pseudized with  8 coefficients,  rinner =    0.900   0.900   0.900
                                                       0.900   0.900

     Mode symmetry, C_3v (3m)   point group:


     Atomic displacements:
     There are   4 irreducible representations

     Representation     1      1 modes -A_1  L_1  To be done

     Representation     2      1 modes -A_1  L_1  To be done

     Representation     3      2 modes -E    L_3  To be done

     Representation     4      2 modes -E    L_3  To be done



     Alpha used in Ewald sum =   0.7000
     PHONON       :     4.50s CPU         4.67s WALL



     Representation #  1 mode #   1

     Self-consistent Calculation

      iter #   1 total cpu time :     4.9 secs   av.it.:   5.5
      thresh= 1.000E-02 alpha_mix =  0.700 |ddv_scf|^2 =  2.549E-03

      iter #   2 total cpu time :     5.1 secs   av.it.:   7.4
      thresh= 5.048E-03 alpha_mix =  0.700 |ddv_scf|^2 =  3.810E-02

      iter #   3 total cpu time :     5.3 secs   av.it.:   6.3
      thresh= 1.000E-02 alpha_mix =  0.700 |ddv_scf|^2 =  1.695E-06

      iter #   4 total cpu time :     5.6 secs   av.it.:   8.2
      thresh= 1.302E-04 alpha_mix =  0.700 |ddv_scf|^2 =  1.077E-07

      iter #   5 total cpu time :     5.8 secs   av.it.:   8.1
      thresh= 3.281E-05 alpha_mix =  0.700 |ddv_scf|^2 =  4.784E-09

      iter #   6 total cpu time :     6.1 secs   av.it.:   7.8
      thresh= 6.916E-06 alpha_mix =  0.700 |ddv_scf|^2 =  1.186E-08

      iter #   7 total cpu time :     6.3 secs   av.it.:   5.8
      thresh= 1.089E-05 alpha_mix =  0.700 |ddv_scf|^2 =  1.452E-10

      iter #   8 total cpu time :     6.5 secs   av.it.:   7.7
      thresh= 1.205E-06 alpha_mix =  0.700 |ddv_scf|^2 =  4.424E-12

      iter #   9 total cpu time :     6.8 secs   av.it.:   7.1
      thresh= 2.103E-07 alpha_mix =  0.700 |ddv_scf|^2 =  1.791E-13

     End of self-consistent calculation

     Convergence has been achieved 


     Representation #  2 mode #   2

     Self-consistent Calculation

      iter #   1 total cpu time :     7.0 secs   av.it.:   5.5
      thresh= 1.000E-02 alpha_mix =  0.700 |ddv_scf|^2 =  2.549E-03

      iter #   2 total cpu time :     7.2 secs   av.it.:   7.4
      thresh= 5.048E-03 alpha_mix =  0.700 |ddv_scf|^2 =  3.810E-02

      iter #   3 total cpu time :     7.5 secs   av.it.:   6.3
      thresh= 1.000E-02 alpha_mix =  0.700 |ddv_scf|^2 =  1.695E-06

      iter #   4 total cpu time :     7.7 secs   av.it.:   8.2
      thresh= 1.302E-04 alpha_mix =  0.700 |ddv_scf|^2 =  1.077E-07

      iter #   5 total cpu time :     8.0 secs   av.it.:   8.1
      thresh= 3.281E-05 alpha_mix =  0.700 |ddv_scf|^2 =  4.784E-09

      iter #   6 total cpu time :     8.2 secs   av.it.:   7.8
      thresh= 6.916E-06 alpha_mix =  0.700 |ddv_scf|^2 =  1.186E-08

      iter #   7 total cpu time :     8.4 secs   av.it.:   5.8
      thresh= 1.089E-05 alpha_mix =  0.700 |ddv_scf|^2 =  1.452E-10

      iter #   8 total cpu time :     8.7 secs   av.it.:   7.7
      thresh= 1.205E-06 alpha_mix =  0.700 |ddv_scf|^2 =  4.424E-12

      iter #   9 total cpu time :     8.9 secs   av.it.:   7.1
      thresh= 2.103E-07 alpha_mix =  0.700 |ddv_scf|^2 =  1.791E-13

     End of self-consistent calculation

     Convergence has been achieved 


     Representation #  3 modes #   3  4

     Self-consistent Calculation

      iter #   1 total cpu time :     9.3 secs   av.it.:   5.0
      thresh= 1.000E-02 alpha_mix =  0.700 |ddv_scf|^2 =  5.455E-07

      iter #   2 total cpu time :     9.9 secs   av.it.:   9.4
      thresh= 7.386E-05 alpha_mix =  0.700 |ddv_scf|^2 =  3.998E-08

      iter #   3 total cpu time :    10.4 secs   av.it.:   9.2
      thresh= 2.000E-05 alpha_mix =  0.700 |ddv_scf|^2 =  3.377E-09

      iter #   4 total cpu time :    11.0 secs   av.it.:   8.9
      thresh= 5.811E-06 alpha_mix =  0.700 |ddv_scf|^2 =  1.034E-11

      iter #   5 total cpu time :    11.5 secs   av.it.:   9.1
      thresh= 3.216E-07 alpha_mix =  0.700 |ddv_scf|^2 =  4.786E-13

     End of self-consistent calculation

     Convergence has been achieved 


     Representation #  4 modes #   5  6

     Self-consistent Calculation

      iter #   1 total cpu time :    11.9 secs   av.it.:   5.0
      thresh= 1.000E-02 alpha_mix =  0.700 |ddv_scf|^2 =  5.453E-07

      iter #   2 total cpu time :    12.5 secs   av.it.:   9.6
      thresh= 7.385E-05 alpha_mix =  0.700 |ddv_scf|^2 =  3.993E-08

      iter #   3 total cpu time :    13.0 secs   av.it.:   9.4
      thresh= 1.998E-05 alpha_mix =  0.700 |ddv_scf|^2 =  3.374E-09

      iter #   4 total cpu time :    13.6 secs   av.it.:   9.1
      thresh= 5.809E-06 alpha_mix =  0.700 |ddv_scf|^2 =  1.035E-11

      iter #   5 total cpu time :    14.1 secs   av.it.:   9.2
      thresh= 3.217E-07 alpha_mix =  0.700 |ddv_scf|^2 =  4.791E-13

     End of self-consistent calculation

     Convergence has been achieved 

     Number of q in the star =    8
     List of q in the star:
          1  -0.250000000   0.250000000  -0.250000000
          2   0.250000000  -0.250000000  -0.250000000
          3   0.250000000  -0.250000000   0.250000000
          4   0.250000000   0.250000000   0.250000000
          5  -0.250000000  -0.250000000  -0.250000000
          6  -0.250000000  -0.250000000   0.250000000
          7  -0.250000000   0.250000000   0.250000000
          8   0.250000000   0.250000000  -0.250000000

     Diagonalizing the dynamical matrix

     q = (   -0.250000000   0.250000000  -0.250000000 ) 

 **************************************************************************
     freq (    1) =       3.256674 [THz] =     108.630951 [cm-1]
     freq (    2) =       3.256674 [THz] =     108.630951 [cm-1]
     freq (    3) =       7.118543 [THz] =     237.449026 [cm-1]
     freq (    4) =      14.644034 [THz] =     488.472405 [cm-1]
     freq (    5) =      15.016227 [THz] =     500.887411 [cm-1]
     freq (    6) =      15.016227 [THz] =     500.887411 [cm-1]
 **************************************************************************

     Mode symmetry, C_3v (3m)   point group:

     freq (  1 -  2) =        108.6  [cm-1]   --> E    L_3           
     freq (  3 -  3) =        237.4  [cm-1]   --> A_1  L_1           
     freq (  4 -  4) =        488.5  [cm-1]   --> A_1  L_1           
     freq (  5 -  6) =        500.9  [cm-1]   --> E    L_3           

     Calculation of q =    0.5000000  -0.5000000   0.5000000

   Info: using nr1, nr2, nr3 values from input

   Info: using nr1, nr2, nr3 values from input

     Parallelization info
     --------------------
     sticks:   dense  smooth     PW     G-vecs:    dense   smooth      PW
     Min          63      63     27                  682      682     186
     Max          64      64     28                  686      686     189
     Sum         253     253    109                 2733     2733     749



     bravais-lattice index     =            2
     lattice parameter (alat)  =      10.2300  a.u.
     unit-cell volume          =     267.6498 (a.u.)^3
     number of atoms/cell      =            2
     number of atomic types    =            1
     number of electrons       =         8.00
     number of Kohn-Sham states=            4
     kinetic-energy cutoff     =      18.0000  Ry
     charge density cutoff     =      72.0000  Ry
     Exchange-correlation      = SLA  PW   PBE  PBE ( 1  4  3  4 0 0)

     celldm(1)=  10.230000  celldm(2)=   0.000000  celldm(3)=   0.000000
     celldm(4)=   0.000000  celldm(5)=   0.000000  celldm(6)=   0.000000

     crystal axes: (cart. coord. in units of alat)
               a(1) = (  -0.500000   0.000000   0.500000 )  
               a(2) = (   0.000000   0.500000   0.500000 )  
               a(3) = (  -0.500000   0.500000   0.000000 )  

     reciprocal axes: (cart. coord. in units 2 pi/alat)
               b(1) = ( -1.000000 -1.000000  1.000000 )  
               b(2) = (  1.000000  1.000000  1.000000 )  
               b(3) = ( -1.000000  1.000000 -1.000000 )  


     PseudoPot. # 1 for Si read from file:
     /home/max/quantum_espresso/qe-6.1/pseudo/si_pbe_v1.uspp.F.UPF.txt
     MD5 check sum: a056efeee980c13900f22a371efd63c1
     Pseudo is Ultrasoft + core correction, Zval =  4.0
     Generated by new atomic code, or converted to UPF format
     Using radial grid of  899 points,  6 beta functions with: 
                l(1) =   0
                l(2) =   0
                l(3) =   1
                l(4) =   1
                l(5) =   2
                l(6) =   2
     Q(r) pseudized with  8 coefficients,  rinner =    0.900   0.900   0.900
                                                       0.900   0.900

     atomic species   valence    mass     pseudopotential
        Si             4.00    28.08600     Si( 1.00)

     48 Sym. Ops., with inversion, found



   Cartesian axes

     site n.     atom                  positions (alat units)
         1           Si  tau(   1) = (   0.0000000   0.0000000   0.0000000  )
         2           Si  tau(   2) = (   0.2500000   0.2500000   0.2500000  )

     number of k points=    60
                       cart. coord. in units 2pi/alat
        k(    1) = (  -0.1250000   0.1250000   0.1250000), wk =   0.0468750
        k(    2) = (   0.3750000  -0.3750000   0.6250000), wk =   0.0000000
        k(    3) = (  -0.3750000   0.3750000  -0.1250000), wk =   0.0468750
        k(    4) = (   0.1250000  -0.1250000   0.3750000), wk =   0.0000000
        k(    5) = (   0.3750000  -0.3750000   0.6250000), wk =   0.0468750
        k(    6) = (   0.8750000  -0.8750000   1.1250000), wk =   0.0000000
        k(    7) = (   0.1250000  -0.1250000   0.3750000), wk =   0.0468750
        k(    8) = (   0.6250000  -0.6250000   0.8750000), wk =   0.0000000
        k(    9) = (  -0.1250000   0.6250000   0.1250000), wk =   0.0937500
        k(   10) = (   0.3750000   0.1250000   0.6250000), wk =   0.0000000
        k(   11) = (   0.6250000  -0.1250000   0.8750000), wk =   0.0937500
        k(   12) = (   1.1250000  -0.6250000   1.3750000), wk =   0.0000000
        k(   13) = (   0.3750000   0.1250000   0.6250000), wk =   0.0937500
        k(   14) = (   0.8750000  -0.3750000   1.1250000), wk =   0.0000000
        k(   15) = (  -0.1250000  -0.8750000   0.1250000), wk =   0.0937500
        k(   16) = (   0.3750000  -1.3750000   0.6250000), wk =   0.0000000
        k(   17) = (  -0.3750000   0.3750000   0.3750000), wk =   0.0468750
        k(   18) = (   0.1250000  -0.1250000   0.8750000), wk =   0.0000000
        k(   19) = (   0.3750000  -0.3750000   1.1250000), wk =   0.0468750
        k(   20) = (   0.8750000  -0.8750000   1.6250000), wk =   0.0000000
        k(   21) = (   0.1250000  -0.1250000   0.1250000), wk =   0.0156250
        k(   22) = (   0.6250000  -0.6250000   0.6250000), wk =   0.0000000
        k(   23) = (  -0.3750000  -0.3750000  -0.1250000), wk =   0.0937500
        k(   24) = (   0.1250000  -0.8750000   0.3750000), wk =   0.0000000
        k(   25) = (  -0.1250000  -0.3750000   0.3750000), wk =   0.0468750
        k(   26) = (   0.3750000  -0.8750000   0.8750000), wk =   0.0000000
        k(   27) = (   0.3750000   0.3750000   0.6250000), wk =   0.0937500
        k(   28) = (   0.8750000  -0.1250000   1.1250000), wk =   0.0000000
        k(   29) = (   0.6250000   0.3750000  -0.3750000), wk =   0.0468750
        k(   30) = (   1.1250000  -0.1250000   0.1250000), wk =   0.0000000
        k(   31) = (   0.1250000   0.1250000   0.3750000), wk =   0.0937500
        k(   32) = (   0.6250000  -0.3750000   0.8750000), wk =   0.0000000
        k(   33) = (   0.3750000   0.1250000  -0.1250000), wk =   0.0468750
        k(   34) = (   0.8750000  -0.3750000   0.3750000), wk =   0.0000000
        k(   35) = (  -0.1250000  -0.6250000  -0.1250000), wk =   0.0468750
        k(   36) = (   0.3750000  -1.1250000   0.3750000), wk =   0.0000000
        k(   37) = (   0.1250000  -0.6250000   0.1250000), wk =   0.0468750
        k(   38) = (   0.6250000  -1.1250000   0.6250000), wk =   0.0000000
        k(   39) = (   0.6250000   0.1250000   0.8750000), wk =   0.0937500
        k(   40) = (   1.1250000  -0.3750000   1.3750000), wk =   0.0000000
        k(   41) = (  -0.8750000   0.1250000   0.6250000), wk =   0.0937500
        k(   42) = (  -0.3750000  -0.3750000   1.1250000), wk =   0.0000000
        k(   43) = (   0.8750000   0.1250000  -0.6250000), wk =   0.0937500
        k(   44) = (   1.3750000  -0.3750000  -0.1250000), wk =   0.0000000
        k(   45) = (   0.3750000  -0.1250000   0.6250000), wk =   0.0937500
        k(   46) = (   0.8750000  -0.6250000   1.1250000), wk =   0.0000000
        k(   47) = (  -0.6250000  -0.1250000   0.3750000), wk =   0.0937500
        k(   48) = (  -0.1250000  -0.6250000   0.8750000), wk =   0.0000000
        k(   49) = (   0.6250000  -0.1250000  -0.3750000), wk =   0.0937500
        k(   50) = (   1.1250000  -0.6250000   0.1250000), wk =   0.0000000
        k(   51) = (  -0.1250000   0.8750000  -0.1250000), wk =   0.0468750
        k(   52) = (   0.3750000   0.3750000   0.3750000), wk =   0.0000000
        k(   53) = (   0.1250000   0.8750000   0.1250000), wk =   0.0468750
        k(   54) = (   0.6250000   0.3750000   0.6250000), wk =   0.0000000
        k(   55) = (   0.3750000  -0.3750000   0.3750000), wk =   0.0156250
        k(   56) = (   0.8750000  -0.8750000   0.8750000), wk =   0.0000000
        k(   57) = (   0.3750000   0.3750000   1.1250000), wk =   0.0937500
        k(   58) = (   0.8750000  -0.1250000   1.6250000), wk =   0.0000000
        k(   59) = (   1.1250000   0.3750000  -0.3750000), wk =   0.0468750
        k(   60) = (   1.6250000  -0.1250000   0.1250000), wk =   0.0000000

     Dense  grid:     2733 G-vectors     FFT dimensions: (  20,  20,  20)

     Estimated max dynamical RAM per process >       0.32MB

     Estimated total allocated dynamical RAM >       1.29MB

     Check: negative/imaginary core charge=   -0.000006    0.000000

     The potential is recalculated from file :
     ./_ph0/silicon.10.23.save/charge-density.dat

     Starting wfc are    8 atomic wfcs

     Band Structure Calculation
     Davidson diagonalization with overlap

     ethr =  1.25E-10,  avg # of iterations = 11.6

     total cpu time spent up to now is        1.3 secs

     End of band structure calculation

          k =-0.1250 0.1250 0.1250 (   335 PWs)   bands (ev):

    -5.5198   4.6951   6.0042   6.0042

          k = 0.3750-0.3750 0.6250 (   348 PWs)   bands (ev):

    -3.2897  -0.4857   4.0052   4.7208

          k =-0.3750 0.3750-0.1250 (   341 PWs)   bands (ev):

    -4.4668   1.6528   3.9715   5.5156

          k = 0.1250-0.1250 0.3750 (   343 PWs)   bands (ev):

    -4.9790   3.0633   4.9657   5.0478

          k = 0.3750-0.3750 0.6250 (   348 PWs)   bands (ev):

    -3.2897  -0.4857   4.0052   4.7208

          k = 0.8750-0.8750 1.1250 (   335 PWs)   bands (ev):

    -5.5198   4.6951   6.0042   6.0042

          k = 0.1250-0.1250 0.3750 (   343 PWs)   bands (ev):

    -4.9790   3.0633   4.9657   5.0478

          k = 0.6250-0.6250 0.8750 (   341 PWs)   bands (ev):

    -4.4668   1.6528   3.9715   5.5156

          k =-0.1250 0.6250 0.1250 (   340 PWs)   bands (ev):

    -3.9210   1.3416   3.6071   4.0695

          k = 0.3750 0.1250 0.6250 (   344 PWs)   bands (ev):

    -3.4920   0.4319   2.9550   4.3517

          k = 0.6250-0.1250 0.8750 (   352 PWs)   bands (ev):

    -2.2324  -0.6632   2.2073   3.3135

          k = 1.1250-0.6250 1.3750 (   341 PWs)   bands (ev):

    -4.4668   1.6528   3.9715   5.5156

          k = 0.3750 0.1250 0.6250 (   344 PWs)   bands (ev):

    -3.4920   0.4319   2.9550   4.3517

          k = 0.8750-0.3750 1.1250 (   340 PWs)   bands (ev):

    -3.9210   1.3416   3.6071   4.0695

          k =-0.1250-0.8750 0.1250 (   344 PWs)   bands (ev):

    -2.4106  -0.5591   2.8349   3.5914

          k = 0.3750-1.3750 0.6250 (   348 PWs)   bands (ev):

    -3.2897  -0.4857   4.0052   4.7208

          k =-0.3750 0.3750 0.3750 (   353 PWs)   bands (ev):

    -4.0209   0.3200   5.1998   5.1998

          k = 0.1250-0.1250 0.8750 (   344 PWs)   bands (ev):

    -2.4106  -0.5591   2.8349   3.5914

          k = 0.3750-0.3750 1.1250 (   347 PWs)   bands (ev):

    -2.7808  -0.3738   2.2779   4.3939

          k = 0.8750-0.8750 1.6250 (   340 PWs)   bands (ev):

    -3.9210   1.3416   3.6071   4.0695

          k = 0.1250-0.1250 0.1250 (   335 PWs)   bands (ev):

    -5.5198   4.6951   6.0042   6.0042

          k = 0.6250-0.6250 0.6250 (   353 PWs)   bands (ev):

    -4.0209   0.3200   5.1998   5.1998

          k =-0.3750-0.3750-0.1250 (   341 PWs)   bands (ev):

    -4.4668   1.6528   3.9715   5.5156

          k = 0.1250-0.8750 0.3750 (   352 PWs)   bands (ev):

    -2.2324  -0.6632   2.2073   3.3135

          k =-0.1250-0.3750 0.3750 (   341 PWs)   bands (ev):

    -4.4668   1.6528   3.9715   5.5156

          k = 0.3750-0.8750 0.8750 (   340 PWs)   bands (ev):

    -3.9210   1.3416   3.6071   4.0695

          k = 0.3750 0.3750 0.6250 (   348 PWs)   bands (ev):

    -3.2897  -0.4857   4.0052   4.7208

          k = 0.8750-0.1250 1.1250 (   344 PWs)   bands (ev):

    -2.4106  -0.5591   2.8349   3.5914

          k = 0.6250 0.3750-0.3750 (   348 PWs)   bands (ev):

    -3.2897  -0.4857   4.0052   4.7208

          k = 1.1250-0.1250 0.1250 (   344 PWs)   bands (ev):

    -2.4106  -0.5591   2.8349   3.5914

          k = 0.1250 0.1250 0.3750 (   343 PWs)   bands (ev):

    -4.9790   3.0633   4.9657   5.0478

          k = 0.6250-0.3750 0.8750 (   344 PWs)   bands (ev):

    -3.4920   0.4319   2.9550   4.3517

          k = 0.3750 0.1250-0.1250 (   343 PWs)   bands (ev):

    -4.9790   3.0633   4.9657   5.0478

          k = 0.8750-0.3750 0.3750 (   347 PWs)   bands (ev):

    -2.7808  -0.3738   2.2779   4.3939

          k =-0.1250-0.6250-0.1250 (   340 PWs)   bands (ev):

    -3.9210   1.3416   3.6071   4.0695

          k = 0.3750-1.1250 0.3750 (   347 PWs)   bands (ev):

    -2.7808  -0.3738   2.2779   4.3939

          k = 0.1250-0.6250 0.1250 (   340 PWs)   bands (ev):

    -3.9210   1.3416   3.6071   4.0695

          k = 0.6250-1.1250 0.6250 (   341 PWs)   bands (ev):

    -4.4668   1.6528   3.9715   5.5156

          k = 0.6250 0.1250 0.8750 (   352 PWs)   bands (ev):

    -2.2324  -0.6632   2.2073   3.3135

          k = 1.1250-0.3750 1.3750 (   344 PWs)   bands (ev):

    -3.4920   0.4319   2.9550   4.3517

          k =-0.8750 0.1250 0.6250 (   352 PWs)   bands (ev):

    -2.2324  -0.6632   2.2073   3.3135

          k =-0.3750-0.3750 1.1250 (   347 PWs)   bands (ev):

    -2.7808  -0.3738   2.2779   4.3939

          k = 0.8750 0.1250-0.6250 (   352 PWs)   bands (ev):

    -2.2324  -0.6632   2.2073   3.3135

          k = 1.3750-0.3750-0.1250 (   344 PWs)   bands (ev):

    -3.4920   0.4319   2.9550   4.3517

          k = 0.3750-0.1250 0.6250 (   344 PWs)   bands (ev):

    -3.4920   0.4319   2.9550   4.3517

          k = 0.8750-0.6250 1.1250 (   343 PWs)   bands (ev):

    -4.9790   3.0633   4.9657   5.0478

          k =-0.6250-0.1250 0.3750 (   344 PWs)   bands (ev):

    -3.4920   0.4319   2.9550   4.3517

          k =-0.1250-0.6250 0.8750 (   352 PWs)   bands (ev):

    -2.2324  -0.6632   2.2073   3.3135

          k = 0.6250-0.1250-0.3750 (   344 PWs)   bands (ev):

    -3.4920   0.4319   2.9550   4.3517

          k = 1.1250-0.6250 0.1250 (   352 PWs)   bands (ev):

    -2.2324  -0.6632   2.2073   3.3135

          k =-0.1250 0.8750-0.1250 (   344 PWs)   bands (ev):

    -2.4106  -0.5591   2.8349   3.5914

          k = 0.3750 0.3750 0.3750 (   353 PWs)   bands (ev):

    -4.0209   0.3200   5.1998   5.1998

          k = 0.1250 0.8750 0.1250 (   344 PWs)   bands (ev):

    -2.4106  -0.5591   2.8349   3.5914

          k = 0.6250 0.3750 0.6250 (   348 PWs)   bands (ev):

    -3.2897  -0.4857   4.0052   4.7208

          k = 0.3750-0.3750 0.3750 (   353 PWs)   bands (ev):

    -4.0209   0.3200   5.1998   5.1998

          k = 0.8750-0.8750 0.8750 (   335 PWs)   bands (ev):

    -5.5198   4.6951   6.0042   6.0042

          k = 0.3750 0.3750 1.1250 (   347 PWs)   bands (ev):

    -2.7808  -0.3738   2.2779   4.3939

          k = 0.8750-0.1250 1.6250 (   352 PWs)   bands (ev):

    -2.2324  -0.6632   2.2073   3.3135

          k = 1.1250 0.3750-0.3750 (   347 PWs)   bands (ev):

    -2.7808  -0.3738   2.2779   4.3939

          k = 1.6250-0.1250 0.1250 (   343 PWs)   bands (ev):

    -4.9790   3.0633   4.9657   5.0478

     highest occupied level (ev):     6.0042

     Writing output data file silicon.10.23.save

                                                                                

     bravais-lattice index     =            2
     lattice parameter (alat)  =      10.2300  a.u.
     unit-cell volume          =     267.6498 (a.u.)^3
     number of atoms/cell      =            2
     number of atomic types    =            1
     kinetic-energy cut-off    =      18.0000  Ry
     charge density cut-off    =      72.0000  Ry
     convergence threshold     =      1.0E-12
     beta                      =       0.7000
     number of iterations used =            4
     Exchange-correlation      = SLA  PW   PBE  PBE ( 1  4  3  4 0 0)


     celldm(1)=   10.23000  celldm(2)=    0.00000  celldm(3)=    0.00000
     celldm(4)=    0.00000  celldm(5)=    0.00000  celldm(6)=    0.00000

     crystal axes: (cart. coord. in units of alat)
               a(1) = ( -0.5000  0.0000  0.5000 )  
               a(2) = (  0.0000  0.5000  0.5000 )  
               a(3) = ( -0.5000  0.5000  0.0000 )  

     reciprocal axes: (cart. coord. in units 2 pi/alat)
               b(1) = ( -1.0000 -1.0000  1.0000 )  
               b(2) = (  1.0000  1.0000  1.0000 )  
               b(3) = ( -1.0000  1.0000 -1.0000 )  


     Atoms inside the unit cell: 

     Cartesian axes

     site n.  atom      mass           positions (alat units)
        1     Si  28.0860   tau(    1) = (    0.00000    0.00000    0.00000  )
        2     Si  28.0860   tau(    2) = (    0.25000    0.25000    0.25000  )

     Computing dynamical matrix for 
                    q = (   0.5000000  -0.5000000   0.5000000 )

     13 Sym.Ops. (with q -> -q+G )


     G cutoff =  190.8640  (    683 G-vectors)     FFT grid: ( 20, 20, 20)
     number of k points=    60

     PseudoPot. # 1 for Si read from file:
     /home/max/quantum_espresso/qe-6.1/pseudo/si_pbe_v1.uspp.F.UPF.txt
     MD5 check sum: a056efeee980c13900f22a371efd63c1
     Pseudo is Ultrasoft + core correction, Zval =  4.0
     Generated by new atomic code, or converted to UPF format
     Using radial grid of  899 points,  6 beta functions with: 
                l(1) =   0
                l(2) =   0
                l(3) =   1
                l(4) =   1
                l(5) =   2
                l(6) =   2
     Q(r) pseudized with  8 coefficients,  rinner =    0.900   0.900   0.900
                                                       0.900   0.900


     Atomic displacements:
     There are   4 irreducible representations

     Representation     1      1 modes -  To be done

     Representation     2      1 modes -  To be done

     Representation     3      2 modes -  To be done

     Representation     4      2 modes -  To be done



     Alpha used in Ewald sum =   0.7000
     PHONON       :    14.23s CPU        14.87s WALL



     Representation #  1 mode #   1

     Self-consistent Calculation

      iter #   1 total cpu time :    15.0 secs   av.it.:   4.8
      thresh= 1.000E-02 alpha_mix =  0.700 |ddv_scf|^2 =  2.541E-05

      iter #   2 total cpu time :    15.1 secs   av.it.:   8.4
      thresh= 5.040E-04 alpha_mix =  0.700 |ddv_scf|^2 =  2.214E-05

      iter #   3 total cpu time :    15.3 secs   av.it.:   7.5
      thresh= 4.706E-04 alpha_mix =  0.700 |ddv_scf|^2 =  3.757E-08

      iter #   4 total cpu time :    15.4 secs   av.it.:   7.6
      thresh= 1.938E-05 alpha_mix =  0.700 |ddv_scf|^2 =  1.420E-10

      iter #   5 total cpu time :    15.5 secs   av.it.:   7.9
      thresh= 1.192E-06 alpha_mix =  0.700 |ddv_scf|^2 =  3.633E-12

      iter #   6 total cpu time :    15.7 secs   av.it.:   7.7
      thresh= 1.906E-07 alpha_mix =  0.700 |ddv_scf|^2 =  5.146E-14

     End of self-consistent calculation

     Convergence has been achieved 


     Representation #  2 mode #   2

     Self-consistent Calculation

      iter #   1 total cpu time :    15.8 secs   av.it.:   5.6
      thresh= 1.000E-02 alpha_mix =  0.700 |ddv_scf|^2 =  3.565E-04

      iter #   2 total cpu time :    15.9 secs   av.it.:   8.3
      thresh= 1.888E-03 alpha_mix =  0.700 |ddv_scf|^2 =  1.091E-03

      iter #   3 total cpu time :    16.1 secs   av.it.:   7.1
      thresh= 3.304E-03 alpha_mix =  0.700 |ddv_scf|^2 =  1.091E-07

      iter #   4 total cpu time :    16.2 secs   av.it.:   8.1
      thresh= 3.303E-05 alpha_mix =  0.700 |ddv_scf|^2 =  6.394E-09

      iter #   5 total cpu time :    16.3 secs   av.it.:   8.4
      thresh= 7.996E-06 alpha_mix =  0.700 |ddv_scf|^2 =  1.253E-10

      iter #   6 total cpu time :    16.5 secs   av.it.:   8.3
      thresh= 1.119E-06 alpha_mix =  0.700 |ddv_scf|^2 =  1.993E-12

      iter #   7 total cpu time :    16.6 secs   av.it.:   7.8
      thresh= 1.412E-07 alpha_mix =  0.700 |ddv_scf|^2 =  4.218E-15

     End of self-consistent calculation

     Convergence has been achieved 


     Representation #  3 modes #   3  4

     Self-consistent Calculation

      iter #   1 total cpu time :    16.8 secs   av.it.:   4.7
      thresh= 1.000E-02 alpha_mix =  0.700 |ddv_scf|^2 =  3.033E-07

      iter #   2 total cpu time :    17.1 secs   av.it.:   9.1
      thresh= 5.507E-05 alpha_mix =  0.700 |ddv_scf|^2 =  2.478E-08

      iter #   3 total cpu time :    17.4 secs   av.it.:   8.4
      thresh= 1.574E-05 alpha_mix =  0.700 |ddv_scf|^2 =  4.774E-10

      iter #   4 total cpu time :    17.7 secs   av.it.:   8.8
      thresh= 2.185E-06 alpha_mix =  0.700 |ddv_scf|^2 =  5.934E-12

      iter #   5 total cpu time :    18.0 secs   av.it.:   8.7
      thresh= 2.436E-07 alpha_mix =  0.700 |ddv_scf|^2 =  2.952E-14

     End of self-consistent calculation

     Convergence has been achieved 


     Representation #  4 modes #   5  6

     Self-consistent Calculation

      iter #   1 total cpu time :    18.2 secs   av.it.:   5.0
      thresh= 1.000E-02 alpha_mix =  0.700 |ddv_scf|^2 =  9.741E-07

      iter #   2 total cpu time :    18.5 secs   av.it.:   9.5
      thresh= 9.870E-05 alpha_mix =  0.700 |ddv_scf|^2 =  7.608E-08

      iter #   3 total cpu time :    18.8 secs   av.it.:   9.3
      thresh= 2.758E-05 alpha_mix =  0.700 |ddv_scf|^2 =  4.671E-09

      iter #   4 total cpu time :    19.1 secs   av.it.:   8.5
      thresh= 6.835E-06 alpha_mix =  0.700 |ddv_scf|^2 =  6.045E-12

      iter #   5 total cpu time :    19.4 secs   av.it.:   8.8
      thresh= 2.459E-07 alpha_mix =  0.700 |ddv_scf|^2 =  2.066E-14

     End of self-consistent calculation

     Convergence has been achieved 

     Number of q in the star =    4
     List of q in the star:
          1   0.500000000  -0.500000000   0.500000000
          2   0.500000000   0.500000000   0.500000000
          3  -0.500000000   0.500000000   0.500000000
          4   0.500000000   0.500000000  -0.500000000

     Diagonalizing the dynamical matrix

     q = (    0.500000000  -0.500000000   0.500000000 ) 

 **************************************************************************
     freq (    1) =       4.442243 [THz] =     148.177260 [cm-1]
     freq (    2) =       4.442243 [THz] =     148.177260 [cm-1]
     freq (    3) =      11.723726 [THz] =     391.061405 [cm-1]
     freq (    4) =      12.661404 [THz] =     422.338961 [cm-1]
     freq (    5) =      14.984569 [THz] =     499.831436 [cm-1]
     freq (    6) =      14.984569 [THz] =     499.831436 [cm-1]
 **************************************************************************

     Calculation of q =    0.0000000   0.5000000   0.0000000

   Info: using nr1, nr2, nr3 values from input

   Info: using nr1, nr2, nr3 values from input

     Parallelization info
     --------------------
     sticks:   dense  smooth     PW     G-vecs:    dense   smooth      PW
     Min          63      63     24                  682      682     161
     Max          64      64     25                  686      686     162
     Sum         253     253     97                 2733     2733     645



     bravais-lattice index     =            2
     lattice parameter (alat)  =      10.2300  a.u.
     unit-cell volume          =     267.6498 (a.u.)^3
     number of atoms/cell      =            2
     number of atomic types    =            1
     number of electrons       =         8.00
     number of Kohn-Sham states=            4
     kinetic-energy cutoff     =      18.0000  Ry
     charge density cutoff     =      72.0000  Ry
     Exchange-correlation      = SLA  PW   PBE  PBE ( 1  4  3  4 0 0)

     celldm(1)=  10.230000  celldm(2)=   0.000000  celldm(3)=   0.000000
     celldm(4)=   0.000000  celldm(5)=   0.000000  celldm(6)=   0.000000

     crystal axes: (cart. coord. in units of alat)
               a(1) = (  -0.500000   0.000000   0.500000 )  
               a(2) = (   0.000000   0.500000   0.500000 )  
               a(3) = (  -0.500000   0.500000   0.000000 )  

     reciprocal axes: (cart. coord. in units 2 pi/alat)
               b(1) = ( -1.000000 -1.000000  1.000000 )  
               b(2) = (  1.000000  1.000000  1.000000 )  
               b(3) = ( -1.000000  1.000000 -1.000000 )  


     PseudoPot. # 1 for Si read from file:
     /home/max/quantum_espresso/qe-6.1/pseudo/si_pbe_v1.uspp.F.UPF.txt
     MD5 check sum: a056efeee980c13900f22a371efd63c1
     Pseudo is Ultrasoft + core correction, Zval =  4.0
     Generated by new atomic code, or converted to UPF format
     Using radial grid of  899 points,  6 beta functions with: 
                l(1) =   0
                l(2) =   0
                l(3) =   1
                l(4) =   1
                l(5) =   2
                l(6) =   2
     Q(r) pseudized with  8 coefficients,  rinner =    0.900   0.900   0.900
                                                       0.900   0.900

     atomic species   valence    mass     pseudopotential
        Si             4.00    28.08600     Si( 1.00)

     48 Sym. Ops., with inversion, found



   Cartesian axes

     site n.     atom                  positions (alat units)
         1           Si  tau(   1) = (   0.0000000   0.0000000   0.0000000  )
         2           Si  tau(   2) = (   0.2500000   0.2500000   0.2500000  )

     number of k points=    80
                       cart. coord. in units 2pi/alat
        k(    1) = (  -0.1250000   0.1250000   0.1250000), wk =   0.0312500
        k(    2) = (  -0.1250000   0.6250000   0.1250000), wk =   0.0000000
        k(    3) = (  -0.3750000   0.3750000  -0.1250000), wk =   0.0625000
        k(    4) = (  -0.3750000   0.8750000  -0.1250000), wk =   0.0000000
        k(    5) = (   0.3750000  -0.3750000   0.6250000), wk =   0.0625000
        k(    6) = (   0.3750000   0.1250000   0.6250000), wk =   0.0000000
        k(    7) = (   0.1250000  -0.1250000   0.3750000), wk =   0.0625000
        k(    8) = (   0.1250000   0.3750000   0.3750000), wk =   0.0000000
        k(    9) = (  -0.1250000   0.6250000   0.1250000), wk =   0.0312500
        k(   10) = (  -0.1250000   1.1250000   0.1250000), wk =   0.0000000
        k(   11) = (   0.6250000  -0.1250000   0.8750000), wk =   0.0625000
        k(   12) = (   0.6250000   0.3750000   0.8750000), wk =   0.0000000
        k(   13) = (   0.3750000   0.1250000   0.6250000), wk =   0.0625000
        k(   14) = (   0.3750000   0.6250000   0.6250000), wk =   0.0000000
        k(   15) = (  -0.1250000  -0.8750000   0.1250000), wk =   0.0312500
        k(   16) = (  -0.1250000  -0.3750000   0.1250000), wk =   0.0000000
        k(   17) = (  -0.3750000   0.3750000   0.3750000), wk =   0.0312500
        k(   18) = (  -0.3750000   0.8750000   0.3750000), wk =   0.0000000
        k(   19) = (   0.3750000  -0.3750000   1.1250000), wk =   0.0625000
        k(   20) = (   0.3750000   0.1250000   1.1250000), wk =   0.0000000
        k(   21) = (  -0.1250000  -0.1250000   0.1250000), wk =   0.0312500
        k(   22) = (  -0.1250000   0.3750000   0.1250000), wk =   0.0000000
        k(   23) = (   0.1250000  -0.3750000   0.3750000), wk =   0.0625000
        k(   24) = (   0.1250000   0.1250000   0.3750000), wk =   0.0000000
        k(   25) = (   0.3750000  -0.1250000   0.3750000), wk =   0.0312500
        k(   26) = (   0.3750000   0.3750000   0.3750000), wk =   0.0000000
        k(   27) = (   0.3750000   0.1250000   0.3750000), wk =   0.0312500
        k(   28) = (   0.3750000   0.6250000   0.3750000), wk =   0.0000000
        k(   29) = (  -0.6250000   0.3750000  -0.3750000), wk =   0.0625000
        k(   30) = (  -0.6250000   0.8750000  -0.3750000), wk =   0.0000000
        k(   31) = (  -0.3750000   0.6250000  -0.3750000), wk =   0.0312500
        k(   32) = (  -0.3750000   1.1250000  -0.3750000), wk =   0.0000000
        k(   33) = (  -0.3750000  -0.6250000  -0.3750000), wk =   0.0312500
        k(   34) = (  -0.3750000  -0.1250000  -0.3750000), wk =   0.0000000
        k(   35) = (  -0.3750000   0.1250000  -0.1250000), wk =   0.0625000
        k(   36) = (  -0.3750000   0.6250000  -0.1250000), wk =   0.0000000
        k(   37) = (  -0.1250000   0.3750000  -0.1250000), wk =   0.0312500
        k(   38) = (  -0.1250000   0.8750000  -0.1250000), wk =   0.0000000
        k(   39) = (  -0.1250000  -0.3750000  -0.1250000), wk =   0.0312500
        k(   40) = (  -0.1250000   0.1250000  -0.1250000), wk =   0.0000000
        k(   41) = (  -0.1250000  -0.6250000   0.1250000), wk =   0.0312500
        k(   42) = (  -0.1250000  -0.1250000   0.1250000), wk =   0.0000000
        k(   43) = (   0.6250000  -0.1250000  -0.1250000), wk =   0.0625000
        k(   44) = (   0.6250000   0.3750000  -0.1250000), wk =   0.0000000
        k(   45) = (   0.6250000   0.1250000   0.1250000), wk =   0.0625000
        k(   46) = (   0.6250000   0.6250000   0.1250000), wk =   0.0000000
        k(   47) = (  -0.8750000   0.1250000  -0.6250000), wk =   0.0625000
        k(   48) = (  -0.8750000   0.6250000  -0.6250000), wk =   0.0000000
        k(   49) = (  -0.1250000   0.6250000  -0.8750000), wk =   0.0625000
        k(   50) = (  -0.1250000   1.1250000  -0.8750000), wk =   0.0000000
        k(   51) = (  -0.1250000   0.8750000  -0.6250000), wk =   0.0625000
        k(   52) = (  -0.1250000   1.3750000  -0.6250000), wk =   0.0000000
        k(   53) = (  -0.1250000  -0.8750000  -0.6250000), wk =   0.0625000
        k(   54) = (  -0.1250000  -0.3750000  -0.6250000), wk =   0.0000000
        k(   55) = (   0.8750000  -0.6250000   0.1250000), wk =   0.0625000
        k(   56) = (   0.8750000  -0.1250000   0.1250000), wk =   0.0000000
        k(   57) = (  -0.6250000  -0.1250000  -0.3750000), wk =   0.0625000
        k(   58) = (  -0.6250000   0.3750000  -0.3750000), wk =   0.0000000
        k(   59) = (   0.1250000   0.3750000  -0.6250000), wk =   0.0625000
        k(   60) = (   0.1250000   0.8750000  -0.6250000), wk =   0.0000000
        k(   61) = (   0.1250000   0.6250000  -0.3750000), wk =   0.0625000
        k(   62) = (   0.1250000   1.1250000  -0.3750000), wk =   0.0000000
        k(   63) = (   0.1250000  -0.6250000  -0.3750000), wk =   0.0625000
        k(   64) = (   0.1250000  -0.1250000  -0.3750000), wk =   0.0000000
        k(   65) = (   0.6250000  -0.3750000  -0.1250000), wk =   0.0625000
        k(   66) = (   0.6250000   0.1250000  -0.1250000), wk =   0.0000000
        k(   67) = (  -0.1250000   0.8750000   0.1250000), wk =   0.0312500
        k(   68) = (  -0.1250000   1.3750000   0.1250000), wk =   0.0000000
        k(   69) = (  -0.8750000  -0.1250000  -0.1250000), wk =   0.0625000
        k(   70) = (  -0.8750000   0.3750000  -0.1250000), wk =   0.0000000
        k(   71) = (  -0.8750000   0.1250000   0.1250000), wk =   0.0625000
        k(   72) = (  -0.8750000   0.6250000   0.1250000), wk =   0.0000000
        k(   73) = (  -0.3750000  -0.3750000   0.3750000), wk =   0.0312500
        k(   74) = (  -0.3750000   0.1250000   0.3750000), wk =   0.0000000
        k(   75) = (  -1.1250000   0.3750000  -0.3750000), wk =   0.0625000
        k(   76) = (  -1.1250000   0.8750000  -0.3750000), wk =   0.0000000
        k(   77) = (  -0.3750000   1.1250000  -0.3750000), wk =   0.0312500
        k(   78) = (  -0.3750000   1.6250000  -0.3750000), wk =   0.0000000
        k(   79) = (  -0.3750000  -1.1250000  -0.3750000), wk =   0.0312500
        k(   80) = (  -0.3750000  -0.6250000  -0.3750000), wk =   0.0000000

     Dense  grid:     2733 G-vectors     FFT dimensions: (  20,  20,  20)

     Estimated max dynamical RAM per process >       0.32MB

     Estimated total allocated dynamical RAM >       1.29MB

     Check: negative/imaginary core charge=   -0.000006    0.000000

     The potential is recalculated from file :
     ./_ph0/silicon.10.23.save/charge-density.dat

     Starting wfc are    8 atomic wfcs

     Band Structure Calculation
     Davidson diagonalization with overlap

     ethr =  1.25E-10,  avg # of iterations = 11.6

     total cpu time spent up to now is        1.9 secs

     End of band structure calculation

          k =-0.1250 0.1250 0.1250 (   335 PWs)   bands (ev):

    -5.5198   4.6951   6.0042   6.0042

          k =-0.1250 0.6250 0.1250 (   340 PWs)   bands (ev):

    -3.9210   1.3416   3.6071   4.0695

          k =-0.3750 0.3750-0.1250 (   341 PWs)   bands (ev):

    -4.4668   1.6528   3.9715   5.5156

          k =-0.3750 0.8750-0.1250 (   352 PWs)   bands (ev):

    -2.2324  -0.6632   2.2073   3.3135

          k = 0.3750-0.3750 0.6250 (   348 PWs)   bands (ev):

    -3.2897  -0.4857   4.0052   4.7208

          k = 0.3750 0.1250 0.6250 (   344 PWs)   bands (ev):

    -3.4920   0.4319   2.9550   4.3517

          k = 0.1250-0.1250 0.3750 (   343 PWs)   bands (ev):

    -4.9790   3.0633   4.9657   5.0478

          k = 0.1250 0.3750 0.3750 (   341 PWs)   bands (ev):

    -4.4668   1.6528   3.9715   5.5156

          k =-0.1250 0.6250 0.1250 (   340 PWs)   bands (ev):

    -3.9210   1.3416   3.6071   4.0695

          k =-0.1250 1.1250 0.1250 (   344 PWs)   bands (ev):

    -2.4106  -0.5591   2.8349   3.5914

          k = 0.6250-0.1250 0.8750 (   352 PWs)   bands (ev):

    -2.2324  -0.6632   2.2073   3.3135

          k = 0.6250 0.3750 0.8750 (   344 PWs)   bands (ev):

    -3.4920   0.4319   2.9550   4.3517

          k = 0.3750 0.1250 0.6250 (   344 PWs)   bands (ev):

    -3.4920   0.4319   2.9550   4.3517

          k = 0.3750 0.6250 0.6250 (   348 PWs)   bands (ev):

    -3.2897  -0.4857   4.0052   4.7208

          k =-0.1250-0.8750 0.1250 (   344 PWs)   bands (ev):

    -2.4106  -0.5591   2.8349   3.5914

          k =-0.1250-0.3750 0.1250 (   343 PWs)   bands (ev):

    -4.9790   3.0633   4.9657   5.0478

          k =-0.3750 0.3750 0.3750 (   353 PWs)   bands (ev):

    -4.0209   0.3200   5.1998   5.1998

          k =-0.3750 0.8750 0.3750 (   347 PWs)   bands (ev):

    -2.7808  -0.3738   2.2779   4.3939

          k = 0.3750-0.3750 1.1250 (   347 PWs)   bands (ev):

    -2.7808  -0.3738   2.2779   4.3939

          k = 0.3750 0.1250 1.1250 (   352 PWs)   bands (ev):

    -2.2324  -0.6632   2.2073   3.3135

          k =-0.1250-0.1250 0.1250 (   335 PWs)   bands (ev):

    -5.5198   4.6951   6.0042   6.0042

          k =-0.1250 0.3750 0.1250 (   343 PWs)   bands (ev):

    -4.9790   3.0633   4.9657   5.0478

          k = 0.1250-0.3750 0.3750 (   341 PWs)   bands (ev):

    -4.4668   1.6528   3.9715   5.5156

          k = 0.1250 0.1250 0.3750 (   343 PWs)   bands (ev):

    -4.9790   3.0633   4.9657   5.0478

          k = 0.3750-0.1250 0.3750 (   341 PWs)   bands (ev):

    -4.4668   1.6528   3.9715   5.5156

          k = 0.3750 0.3750 0.3750 (   353 PWs)   bands (ev):

    -4.0209   0.3200   5.1998   5.1998

          k = 0.3750 0.1250 0.3750 (   341 PWs)   bands (ev):

    -4.4668   1.6528   3.9715   5.5156

          k = 0.3750 0.6250 0.3750 (   348 PWs)   bands (ev):

    -3.2897  -0.4857   4.0052   4.7208

          k =-0.6250 0.3750-0.3750 (   348 PWs)   bands (ev):

    -3.2897  -0.4857   4.0052   4.7208

          k =-0.6250 0.8750-0.3750 (   344 PWs)   bands (ev):

    -3.4920   0.4319   2.9550   4.3517

          k =-0.3750 0.6250-0.3750 (   348 PWs)   bands (ev):

    -3.2897  -0.4857   4.0052   4.7208

          k =-0.3750 1.1250-0.3750 (   347 PWs)   bands (ev):

    -2.7808  -0.3738   2.2779   4.3939

          k =-0.3750-0.6250-0.3750 (   348 PWs)   bands (ev):

    -3.2897  -0.4857   4.0052   4.7208

          k =-0.3750-0.1250-0.3750 (   341 PWs)   bands (ev):

    -4.4668   1.6528   3.9715   5.5156

          k =-0.3750 0.1250-0.1250 (   343 PWs)   bands (ev):

    -4.9790   3.0633   4.9657   5.0478

          k =-0.3750 0.6250-0.1250 (   344 PWs)   bands (ev):

    -3.4920   0.4319   2.9550   4.3517

          k =-0.1250 0.3750-0.1250 (   343 PWs)   bands (ev):

    -4.9790   3.0633   4.9657   5.0478

          k =-0.1250 0.8750-0.1250 (   344 PWs)   bands (ev):

    -2.4106  -0.5591   2.8349   3.5914

          k =-0.1250-0.3750-0.1250 (   343 PWs)   bands (ev):

    -4.9790   3.0633   4.9657   5.0478

          k =-0.1250 0.1250-0.1250 (   335 PWs)   bands (ev):

    -5.5198   4.6951   6.0042   6.0042

          k =-0.1250-0.6250 0.1250 (   340 PWs)   bands (ev):

    -3.9210   1.3416   3.6071   4.0695

          k =-0.1250-0.1250 0.1250 (   335 PWs)   bands (ev):

    -5.5198   4.6951   6.0042   6.0042

          k = 0.6250-0.1250-0.1250 (   340 PWs)   bands (ev):

    -3.9210   1.3416   3.6071   4.0695

          k = 0.6250 0.3750-0.1250 (   344 PWs)   bands (ev):

    -3.4920   0.4319   2.9550   4.3517

          k = 0.6250 0.1250 0.1250 (   340 PWs)   bands (ev):

    -3.9210   1.3416   3.6071   4.0695

          k = 0.6250 0.6250 0.1250 (   347 PWs)   bands (ev):

    -2.7808  -0.3738   2.2779   4.3939

          k =-0.8750 0.1250-0.6250 (   352 PWs)   bands (ev):

    -2.2324  -0.6632   2.2073   3.3135

          k =-0.8750 0.6250-0.6250 (   341 PWs)   bands (ev):

    -4.4668   1.6528   3.9715   5.5156

          k =-0.1250 0.6250-0.8750 (   352 PWs)   bands (ev):

    -2.2324  -0.6632   2.2073   3.3135

          k =-0.1250 1.1250-0.8750 (   344 PWs)   bands (ev):

    -2.4106  -0.5591   2.8349   3.5914

          k =-0.1250 0.8750-0.6250 (   352 PWs)   bands (ev):

    -2.2324  -0.6632   2.2073   3.3135

          k =-0.1250 1.3750-0.6250 (   347 PWs)   bands (ev):

    -2.7808  -0.3738   2.2779   4.3939

          k =-0.1250-0.8750-0.6250 (   352 PWs)   bands (ev):

    -2.2324  -0.6632   2.2073   3.3135

          k =-0.1250-0.3750-0.6250 (   344 PWs)   bands (ev):

    -3.4920   0.4319   2.9550   4.3517

          k = 0.8750-0.6250 0.1250 (   352 PWs)   bands (ev):

    -2.2324  -0.6632   2.2073   3.3135

          k = 0.8750-0.1250 0.1250 (   344 PWs)   bands (ev):

    -2.4106  -0.5591   2.8349   3.5914

          k =-0.6250-0.1250-0.3750 (   344 PWs)   bands (ev):

    -3.4920   0.4319   2.9550   4.3517

          k =-0.6250 0.3750-0.3750 (   348 PWs)   bands (ev):

    -3.2897  -0.4857   4.0052   4.7208

          k = 0.1250 0.3750-0.6250 (   344 PWs)   bands (ev):

    -3.4920   0.4319   2.9550   4.3517

          k = 0.1250 0.8750-0.6250 (   352 PWs)   bands (ev):

    -2.2324  -0.6632   2.2073   3.3135

          k = 0.1250 0.6250-0.3750 (   344 PWs)   bands (ev):

    -3.4920   0.4319   2.9550   4.3517

          k = 0.1250 1.1250-0.3750 (   352 PWs)   bands (ev):

    -2.2324  -0.6632   2.2073   3.3135

          k = 0.1250-0.6250-0.3750 (   344 PWs)   bands (ev):

    -3.4920   0.4319   2.9550   4.3517

          k = 0.1250-0.1250-0.3750 (   343 PWs)   bands (ev):

    -4.9790   3.0633   4.9657   5.0478

          k = 0.6250-0.3750-0.1250 (   344 PWs)   bands (ev):

    -3.4920   0.4319   2.9550   4.3517

          k = 0.6250 0.1250-0.1250 (   340 PWs)   bands (ev):

    -3.9210   1.3416   3.6071   4.0695

          k =-0.1250 0.8750 0.1250 (   344 PWs)   bands (ev):

    -2.4106  -0.5591   2.8349   3.5914

          k =-0.1250 1.3750 0.1250 (   340 PWs)   bands (ev):

    -3.9210   1.3416   3.6071   4.0695

          k =-0.8750-0.1250-0.1250 (   344 PWs)   bands (ev):

    -2.4106  -0.5591   2.8349   3.5914

          k =-0.8750 0.3750-0.1250 (   352 PWs)   bands (ev):

    -2.2324  -0.6632   2.2073   3.3135

          k =-0.8750 0.1250 0.1250 (   344 PWs)   bands (ev):

    -2.4106  -0.5591   2.8349   3.5914

          k =-0.8750 0.6250 0.1250 (   352 PWs)   bands (ev):

    -2.2324  -0.6632   2.2073   3.3135

          k =-0.3750-0.3750 0.3750 (   353 PWs)   bands (ev):

    -4.0209   0.3200   5.1998   5.1998

          k =-0.3750 0.1250 0.3750 (   341 PWs)   bands (ev):

    -4.4668   1.6528   3.9715   5.5156

          k =-1.1250 0.3750-0.3750 (   347 PWs)   bands (ev):

    -2.7808  -0.3738   2.2779   4.3939

          k =-1.1250 0.8750-0.3750 (   340 PWs)   bands (ev):

    -3.9210   1.3416   3.6071   4.0695

          k =-0.3750 1.1250-0.3750 (   347 PWs)   bands (ev):

    -2.7808  -0.3738   2.2779   4.3939

          k =-0.3750 1.6250-0.3750 (   353 PWs)   bands (ev):

    -4.0209   0.3200   5.1998   5.1998

          k =-0.3750-1.1250-0.3750 (   347 PWs)   bands (ev):

    -2.7808  -0.3738   2.2779   4.3939

          k =-0.3750-0.6250-0.3750 (   348 PWs)   bands (ev):

    -3.2897  -0.4857   4.0052   4.7208

     highest occupied level (ev):     6.0042

     Writing output data file silicon.10.23.save

                                                                                

     bravais-lattice index     =            2
     lattice parameter (alat)  =      10.2300  a.u.
     unit-cell volume          =     267.6498 (a.u.)^3
     number of atoms/cell      =            2
     number of atomic types    =            1
     kinetic-energy cut-off    =      18.0000  Ry
     charge density cut-off    =      72.0000  Ry
     convergence threshold     =      1.0E-12
     beta                      =       0.7000
     number of iterations used =            4
     Exchange-correlation      = SLA  PW   PBE  PBE ( 1  4  3  4 0 0)


     celldm(1)=   10.23000  celldm(2)=    0.00000  celldm(3)=    0.00000
     celldm(4)=    0.00000  celldm(5)=    0.00000  celldm(6)=    0.00000

     crystal axes: (cart. coord. in units of alat)
               a(1) = ( -0.5000  0.0000  0.5000 )  
               a(2) = (  0.0000  0.5000  0.5000 )  
               a(3) = ( -0.5000  0.5000  0.0000 )  

     reciprocal axes: (cart. coord. in units 2 pi/alat)
               b(1) = ( -1.0000 -1.0000  1.0000 )  
               b(2) = (  1.0000  1.0000  1.0000 )  
               b(3) = ( -1.0000  1.0000 -1.0000 )  


     Atoms inside the unit cell: 

     Cartesian axes

     site n.  atom      mass           positions (alat units)
        1     Si  28.0860   tau(    1) = (    0.00000    0.00000    0.00000  )
        2     Si  28.0860   tau(    2) = (    0.25000    0.25000    0.25000  )

     Computing dynamical matrix for 
                    q = (   0.0000000   0.5000000   0.0000000 )

      8 Sym.Ops. (no q -> -q+G )


     G cutoff =  190.8640  (    683 G-vectors)     FFT grid: ( 20, 20, 20)
     number of k points=    80

     PseudoPot. # 1 for Si read from file:
     /home/max/quantum_espresso/qe-6.1/pseudo/si_pbe_v1.uspp.F.UPF.txt
     MD5 check sum: a056efeee980c13900f22a371efd63c1
     Pseudo is Ultrasoft + core correction, Zval =  4.0
     Generated by new atomic code, or converted to UPF format
     Using radial grid of  899 points,  6 beta functions with: 
                l(1) =   0
                l(2) =   0
                l(3) =   1
                l(4) =   1
                l(5) =   2
                l(6) =   2
     Q(r) pseudized with  8 coefficients,  rinner =    0.900   0.900   0.900
                                                       0.900   0.900

     Mode symmetry, C_4v (4mm)  point group:


     Atomic displacements:
     There are   4 irreducible representations

     Representation     1      1 modes -A_1  G_1 D_1  To be done

     Representation     2      1 modes -B_2  G_4 D_2'  To be done

     Representation     3      2 modes -E    G_5 D_5  To be done

     Representation     4      2 modes -E    G_5 D_5  To be done



     Alpha used in Ewald sum =   0.7000
     PHONON       :    19.40s CPU        20.24s WALL



     Representation #  1 mode #   1

     Self-consistent Calculation

      iter #   1 total cpu time :    20.4 secs   av.it.:   5.7
      thresh= 1.000E-02 alpha_mix =  0.700 |ddv_scf|^2 =  3.058E-03

      iter #   2 total cpu time :    20.6 secs   av.it.:   7.6
      thresh= 5.530E-03 alpha_mix =  0.700 |ddv_scf|^2 =  3.972E-02

      iter #   3 total cpu time :    20.7 secs   av.it.:   6.7
      thresh= 1.000E-02 alpha_mix =  0.700 |ddv_scf|^2 =  1.363E-07

      iter #   4 total cpu time :    20.9 secs   av.it.:   8.1
      thresh= 3.691E-05 alpha_mix =  0.700 |ddv_scf|^2 =  1.197E-08

      iter #   5 total cpu time :    21.1 secs   av.it.:   7.8
      thresh= 1.094E-05 alpha_mix =  0.700 |ddv_scf|^2 =  7.643E-10

      iter #   6 total cpu time :    21.2 secs   av.it.:   7.8
      thresh= 2.765E-06 alpha_mix =  0.700 |ddv_scf|^2 =  2.891E-12

      iter #   7 total cpu time :    21.4 secs   av.it.:   8.0
      thresh= 1.700E-07 alpha_mix =  0.700 |ddv_scf|^2 =  5.560E-13

     End of self-consistent calculation

     Convergence has been achieved 


     Representation #  2 mode #   2

     Self-consistent Calculation

      iter #   1 total cpu time :    21.6 secs   av.it.:   4.9
      thresh= 1.000E-02 alpha_mix =  0.700 |ddv_scf|^2 =  5.423E-06

      iter #   2 total cpu time :    21.7 secs   av.it.:   8.6
      thresh= 2.329E-04 alpha_mix =  0.700 |ddv_scf|^2 =  1.273E-06

      iter #   3 total cpu time :    21.9 secs   av.it.:   8.5
      thresh= 1.128E-04 alpha_mix =  0.700 |ddv_scf|^2 =  3.573E-08

      iter #   4 total cpu time :    22.1 secs   av.it.:   8.1
      thresh= 1.890E-05 alpha_mix =  0.700 |ddv_scf|^2 =  5.747E-10

      iter #   5 total cpu time :    22.3 secs   av.it.:   8.6
      thresh= 2.397E-06 alpha_mix =  0.700 |ddv_scf|^2 =  6.195E-12

      iter #   6 total cpu time :    22.5 secs   av.it.:   7.8
      thresh= 2.489E-07 alpha_mix =  0.700 |ddv_scf|^2 =  6.189E-14

     End of self-consistent calculation

     Convergence has been achieved 


     Representation #  3 modes #   3  4

     Self-consistent Calculation

      iter #   1 total cpu time :    22.7 secs   av.it.:   5.0
      thresh= 1.000E-02 alpha_mix =  0.700 |ddv_scf|^2 =  1.006E-06

      iter #   2 total cpu time :    23.1 secs   av.it.:   9.7
      thresh= 1.003E-04 alpha_mix =  0.700 |ddv_scf|^2 =  1.257E-07

      iter #   3 total cpu time :    23.5 secs   av.it.:   9.4
      thresh= 3.545E-05 alpha_mix =  0.700 |ddv_scf|^2 =  5.936E-09

      iter #   4 total cpu time :    23.9 secs   av.it.:   8.8
      thresh= 7.705E-06 alpha_mix =  0.700 |ddv_scf|^2 =  8.727E-12

      iter #   5 total cpu time :    24.2 secs   av.it.:   9.0
      thresh= 2.954E-07 alpha_mix =  0.700 |ddv_scf|^2 =  2.673E-13

     End of self-consistent calculation

     Convergence has been achieved 


     Representation #  4 modes #   5  6

     Self-consistent Calculation

      iter #   1 total cpu time :    24.5 secs   av.it.:   5.0
      thresh= 1.000E-02 alpha_mix =  0.700 |ddv_scf|^2 =  9.254E-07

      iter #   2 total cpu time :    24.9 secs   av.it.:   9.7
      thresh= 9.620E-05 alpha_mix =  0.700 |ddv_scf|^2 =  1.167E-07

      iter #   3 total cpu time :    25.3 secs   av.it.:   9.4
      thresh= 3.416E-05 alpha_mix =  0.700 |ddv_scf|^2 =  6.233E-09

      iter #   4 total cpu time :    25.7 secs   av.it.:   8.9
      thresh= 7.895E-06 alpha_mix =  0.700 |ddv_scf|^2 =  1.364E-11

      iter #   5 total cpu time :    26.0 secs   av.it.:   9.1
      thresh= 3.693E-07 alpha_mix =  0.700 |ddv_scf|^2 =  3.992E-14

     End of self-consistent calculation

     Convergence has been achieved 

     Number of q in the star =    6
     List of q in the star:
          1   0.000000000   0.500000000   0.000000000
          2   0.000000000  -0.500000000   0.000000000
          3   0.500000000   0.000000000   0.000000000
          4   0.000000000   0.000000000   0.500000000
          5   0.000000000   0.000000000  -0.500000000
          6  -0.500000000   0.000000000   0.000000000

     Diagonalizing the dynamical matrix

     q = (    0.000000000   0.500000000   0.000000000 ) 

 **************************************************************************
     freq (    1) =       4.138406 [THz] =     138.042374 [cm-1]
     freq (    2) =       4.138406 [THz] =     138.042374 [cm-1]
     freq (    3) =       7.371854 [THz] =     245.898580 [cm-1]
     freq (    4) =      14.356391 [THz] =     478.877661 [cm-1]
     freq (    5) =      14.356391 [THz] =     478.877661 [cm-1]
     freq (    6) =      14.879061 [THz] =     496.312055 [cm-1]
 **************************************************************************

     Mode symmetry, C_4v (4mm)  point group:

     freq (  1 -  2) =        138.0  [cm-1]   --> E    G_5 D_5       
     freq (  3 -  3) =        245.9  [cm-1]   --> A_1  G_1 D_1       
     freq (  4 -  5) =        478.9  [cm-1]   --> E    G_5 D_5       
     freq (  6 -  6) =        496.3  [cm-1]   --> B_2  G_4 D_2'      

     Calculation of q =    0.7500000  -0.2500000   0.7500000

   Info: using nr1, nr2, nr3 values from input

   Info: using nr1, nr2, nr3 values from input

     Parallelization info
     --------------------
     sticks:   dense  smooth     PW     G-vecs:    dense   smooth      PW
     Min          63      63     30                  682      682     216
     Max          64      64     31                  686      686     218
     Sum         253     253    121                 2733     2733     869



     bravais-lattice index     =            2
     lattice parameter (alat)  =      10.2300  a.u.
     unit-cell volume          =     267.6498 (a.u.)^3
     number of atoms/cell      =            2
     number of atomic types    =            1
     number of electrons       =         8.00
     number of Kohn-Sham states=            4
     kinetic-energy cutoff     =      18.0000  Ry
     charge density cutoff     =      72.0000  Ry
     Exchange-correlation      = SLA  PW   PBE  PBE ( 1  4  3  4 0 0)

     celldm(1)=  10.230000  celldm(2)=   0.000000  celldm(3)=   0.000000
     celldm(4)=   0.000000  celldm(5)=   0.000000  celldm(6)=   0.000000

     crystal axes: (cart. coord. in units of alat)
               a(1) = (  -0.500000   0.000000   0.500000 )  
               a(2) = (   0.000000   0.500000   0.500000 )  
               a(3) = (  -0.500000   0.500000   0.000000 )  

     reciprocal axes: (cart. coord. in units 2 pi/alat)
               b(1) = ( -1.000000 -1.000000  1.000000 )  
               b(2) = (  1.000000  1.000000  1.000000 )  
               b(3) = ( -1.000000  1.000000 -1.000000 )  


     PseudoPot. # 1 for Si read from file:
     /home/max/quantum_espresso/qe-6.1/pseudo/si_pbe_v1.uspp.F.UPF.txt
     MD5 check sum: a056efeee980c13900f22a371efd63c1
     Pseudo is Ultrasoft + core correction, Zval =  4.0
     Generated by new atomic code, or converted to UPF format
     Using radial grid of  899 points,  6 beta functions with: 
                l(1) =   0
                l(2) =   0
                l(3) =   1
                l(4) =   1
                l(5) =   2
                l(6) =   2
     Q(r) pseudized with  8 coefficients,  rinner =    0.900   0.900   0.900
                                                       0.900   0.900

     atomic species   valence    mass     pseudopotential
        Si             4.00    28.08600     Si( 1.00)

     48 Sym. Ops., with inversion, found



   Cartesian axes

     site n.     atom                  positions (alat units)
         1           Si  tau(   1) = (   0.0000000   0.0000000   0.0000000  )
         2           Si  tau(   2) = (   0.2500000   0.2500000   0.2500000  )

     number of k points=   288

     Number of k-points >= 100: set verbosity='high' to print them.

     Dense  grid:     2733 G-vectors     FFT dimensions: (  20,  20,  20)

     Estimated max dynamical RAM per process >       0.32MB

     Estimated total allocated dynamical RAM >       1.29MB

     Check: negative/imaginary core charge=   -0.000006    0.000000

     The potential is recalculated from file :
     ./_ph0/silicon.10.23.save/charge-density.dat

     Starting wfc are    8 atomic wfcs

     Band Structure Calculation
     Davidson diagonalization with overlap

     ethr =  1.25E-10,  avg # of iterations = 11.5

     total cpu time spent up to now is        3.7 secs

     End of band structure calculation

     Number of k-points >= 100: set verbosity='high' to print the bands.

     highest occupied level (ev):     6.0042

     Writing output data file silicon.10.23.save

                                                                                

     bravais-lattice index     =            2
     lattice parameter (alat)  =      10.2300  a.u.
     unit-cell volume          =     267.6498 (a.u.)^3
     number of atoms/cell      =            2
     number of atomic types    =            1
     kinetic-energy cut-off    =      18.0000  Ry
     charge density cut-off    =      72.0000  Ry
     convergence threshold     =      1.0E-12
     beta                      =       0.7000
     number of iterations used =            4
     Exchange-correlation      = SLA  PW   PBE  PBE ( 1  4  3  4 0 0)


     celldm(1)=   10.23000  celldm(2)=    0.00000  celldm(3)=    0.00000
     celldm(4)=    0.00000  celldm(5)=    0.00000  celldm(6)=    0.00000

     crystal axes: (cart. coord. in units of alat)
               a(1) = ( -0.5000  0.0000  0.5000 )  
               a(2) = (  0.0000  0.5000  0.5000 )  
               a(3) = ( -0.5000  0.5000  0.0000 )  

     reciprocal axes: (cart. coord. in units 2 pi/alat)
               b(1) = ( -1.0000 -1.0000  1.0000 )  
               b(2) = (  1.0000  1.0000  1.0000 )  
               b(3) = ( -1.0000  1.0000 -1.0000 )  


     Atoms inside the unit cell: 

     Cartesian axes

     site n.  atom      mass           positions (alat units)
        1     Si  28.0860   tau(    1) = (    0.00000    0.00000    0.00000  )
        2     Si  28.0860   tau(    2) = (    0.25000    0.25000    0.25000  )

     Computing dynamical matrix for 
                    q = (   0.7500000  -0.2500000   0.7500000 )

      2 Sym.Ops. (no q -> -q+G )


     G cutoff =  190.8640  (    683 G-vectors)     FFT grid: ( 20, 20, 20)
     number of k points=   288

     PseudoPot. # 1 for Si read from file:
     /home/max/quantum_espresso/qe-6.1/pseudo/si_pbe_v1.uspp.F.UPF.txt
     MD5 check sum: a056efeee980c13900f22a371efd63c1
     Pseudo is Ultrasoft + core correction, Zval =  4.0
     Generated by new atomic code, or converted to UPF format
     Using radial grid of  899 points,  6 beta functions with: 
                l(1) =   0
                l(2) =   0
                l(3) =   1
                l(4) =   1
                l(5) =   2
                l(6) =   2
     Q(r) pseudized with  8 coefficients,  rinner =    0.900   0.900   0.900
                                                       0.900   0.900

     Mode symmetry, C_s (m)     point group:


     Atomic displacements:
     There are   6 irreducible representations

     Representation     1      1 modes -A'  To be done

     Representation     2      1 modes -A'  To be done

     Representation     3      1 modes -A'  To be done

     Representation     4      1 modes -A'  To be done

     Representation     5      1 modes -A''  To be done

     Representation     6      1 modes -A''  To be done



     Alpha used in Ewald sum =   0.7000
     PHONON       :    27.41s CPU        28.54s WALL



     Representation #  1 mode #   1

     Self-consistent Calculation

      iter #   1 total cpu time :    29.0 secs   av.it.:   5.3
      thresh= 1.000E-02 alpha_mix =  0.700 |ddv_scf|^2 =  6.268E-05

      iter #   2 total cpu time :    29.7 secs   av.it.:   8.9
      thresh= 7.917E-04 alpha_mix =  0.700 |ddv_scf|^2 =  1.616E-04

      iter #   3 total cpu time :    30.3 secs   av.it.:   7.5
      thresh= 1.271E-03 alpha_mix =  0.700 |ddv_scf|^2 =  1.152E-06

      iter #   4 total cpu time :    30.9 secs   av.it.:   8.4
      thresh= 1.073E-04 alpha_mix =  0.700 |ddv_scf|^2 =  5.196E-08

      iter #   5 total cpu time :    31.5 secs   av.it.:   8.4
      thresh= 2.279E-05 alpha_mix =  0.700 |ddv_scf|^2 =  7.027E-09

      iter #   6 total cpu time :    32.1 secs   av.it.:   8.5
      thresh= 8.383E-06 alpha_mix =  0.700 |ddv_scf|^2 =  7.010E-11

      iter #   7 total cpu time :    32.8 secs   av.it.:   8.7
      thresh= 8.373E-07 alpha_mix =  0.700 |ddv_scf|^2 =  2.391E-12

      iter #   8 total cpu time :    33.4 secs   av.it.:   8.6
      thresh= 1.546E-07 alpha_mix =  0.700 |ddv_scf|^2 =  1.544E-13

     End of self-consistent calculation

     Convergence has been achieved 


     Representation #  2 mode #   2

     Self-consistent Calculation

      iter #   1 total cpu time :    34.0 secs   av.it.:   5.4
      thresh= 1.000E-02 alpha_mix =  0.700 |ddv_scf|^2 =  1.123E-04

      iter #   2 total cpu time :    34.6 secs   av.it.:   8.7
      thresh= 1.060E-03 alpha_mix =  0.700 |ddv_scf|^2 =  3.170E-04

      iter #   3 total cpu time :    35.2 secs   av.it.:   7.4
      thresh= 1.780E-03 alpha_mix =  0.700 |ddv_scf|^2 =  7.648E-07

      iter #   4 total cpu time :    35.8 secs   av.it.:   8.6
      thresh= 8.745E-05 alpha_mix =  0.700 |ddv_scf|^2 =  5.192E-08

      iter #   5 total cpu time :    36.4 secs   av.it.:   8.2
      thresh= 2.279E-05 alpha_mix =  0.700 |ddv_scf|^2 =  9.488E-09

      iter #   6 total cpu time :    37.1 secs   av.it.:   8.4
      thresh= 9.741E-06 alpha_mix =  0.700 |ddv_scf|^2 =  7.360E-11

      iter #   7 total cpu time :    37.7 secs   av.it.:   8.7
      thresh= 8.579E-07 alpha_mix =  0.700 |ddv_scf|^2 =  2.198E-12

      iter #   8 total cpu time :    38.3 secs   av.it.:   8.7
      thresh= 1.483E-07 alpha_mix =  0.700 |ddv_scf|^2 =  4.168E-13

     End of self-consistent calculation

     Convergence has been achieved 


     Representation #  3 mode #   3

     Self-consistent Calculation

      iter #   1 total cpu time :    38.9 secs   av.it.:   5.3
      thresh= 1.000E-02 alpha_mix =  0.700 |ddv_scf|^2 =  8.823E-05

      iter #   2 total cpu time :    39.5 secs   av.it.:   8.8
      thresh= 9.393E-04 alpha_mix =  0.700 |ddv_scf|^2 =  2.337E-04

      iter #   3 total cpu time :    40.1 secs   av.it.:   7.4
      thresh= 1.529E-03 alpha_mix =  0.700 |ddv_scf|^2 =  1.315E-06

      iter #   4 total cpu time :    40.7 secs   av.it.:   8.2
      thresh= 1.147E-04 alpha_mix =  0.700 |ddv_scf|^2 =  5.310E-08

      iter #   5 total cpu time :    41.3 secs   av.it.:   8.4
      thresh= 2.304E-05 alpha_mix =  0.700 |ddv_scf|^2 =  9.524E-09

      iter #   6 total cpu time :    42.0 secs   av.it.:   8.4
      thresh= 9.759E-06 alpha_mix =  0.700 |ddv_scf|^2 =  4.444E-11

      iter #   7 total cpu time :    42.6 secs   av.it.:   8.6
      thresh= 6.666E-07 alpha_mix =  0.700 |ddv_scf|^2 =  1.514E-12

      iter #   8 total cpu time :    43.2 secs   av.it.:   8.8
      thresh= 1.231E-07 alpha_mix =  0.700 |ddv_scf|^2 =  2.366E-13

     End of self-consistent calculation

     Convergence has been achieved 


     Representation #  4 mode #   4

     Self-consistent Calculation

      iter #   1 total cpu time :    43.8 secs   av.it.:   5.2
      thresh= 1.000E-02 alpha_mix =  0.700 |ddv_scf|^2 =  3.860E-05

      iter #   2 total cpu time :    44.4 secs   av.it.:   8.9
[...]
        k(   59) = (  -0.8750000   0.1250000  -0.1250000), wk =   0.0625000
        k(   60) = (  -1.3750000  -0.8750000  -0.1250000), wk =   0.0000000
        k(   61) = (  -1.1250000   0.3750000  -0.3750000), wk =   0.0625000
        k(   62) = (  -1.6250000  -0.6250000  -0.3750000), wk =   0.0000000
        k(   63) = (  -0.3750000   0.3750000   1.1250000), wk =   0.0625000
        k(   64) = (  -0.8750000  -0.6250000   1.1250000), wk =   0.0000000

     Dense  grid:     2733 G-vectors     FFT dimensions: (  20,  20,  20)

     Estimated max dynamical RAM per process >       0.32MB

     Estimated total allocated dynamical RAM >       1.29MB

     Check: negative/imaginary core charge=   -0.000006    0.000000

     The potential is recalculated from file :
     ./_ph0/silicon.10.23.save/charge-density.dat

     Starting wfc are    8 atomic wfcs

     Band Structure Calculation
     Davidson diagonalization with overlap

     ethr =  1.25E-10,  avg # of iterations = 11.5

     total cpu time spent up to now is        5.9 secs

     End of band structure calculation

          k =-0.1250 0.1250 0.1250 (   335 PWs)   bands (ev):

    -5.5198   4.6951   6.0042   6.0042

          k =-0.6250-0.8750 0.1250 (   352 PWs)   bands (ev):

    -2.2324  -0.6632   2.2073   3.3135

          k =-0.3750 0.3750-0.1250 (   341 PWs)   bands (ev):

    -4.4668   1.6528   3.9715   5.5156

          k =-0.8750-0.6250-0.1250 (   352 PWs)   bands (ev):

    -2.2324  -0.6632   2.2073   3.3135

          k = 0.3750-0.3750 0.6250 (   348 PWs)   bands (ev):

    -3.2897  -0.4857   4.0052   4.7208

          k =-0.1250-1.3750 0.6250 (   347 PWs)   bands (ev):

    -2.7808  -0.3738   2.2779   4.3939

          k = 0.1250-0.1250 0.3750 (   343 PWs)   bands (ev):

    -4.9790   3.0633   4.9657   5.0478

          k =-0.3750-1.1250 0.3750 (   347 PWs)   bands (ev):

    -2.7808  -0.3738   2.2779   4.3939

          k =-0.1250 0.6250 0.1250 (   340 PWs)   bands (ev):

    -3.9210   1.3416   3.6071   4.0695

          k =-0.6250-0.3750 0.1250 (   344 PWs)   bands (ev):

    -3.4920   0.4319   2.9550   4.3517

          k = 0.6250-0.1250 0.8750 (   352 PWs)   bands (ev):

    -2.2324  -0.6632   2.2073   3.3135

          k = 0.1250-1.1250 0.8750 (   344 PWs)   bands (ev):

    -2.4106  -0.5591   2.8349   3.5914

          k = 0.3750 0.1250 0.6250 (   344 PWs)   bands (ev):

    -3.4920   0.4319   2.9550   4.3517

          k =-0.1250-0.8750 0.6250 (   352 PWs)   bands (ev):

    -2.2324  -0.6632   2.2073   3.3135

          k =-0.1250-0.8750 0.1250 (   344 PWs)   bands (ev):

    -2.4106  -0.5591   2.8349   3.5914

          k =-0.6250-1.8750 0.1250 (   340 PWs)   bands (ev):

    -3.9210   1.3416   3.6071   4.0695

          k =-0.3750 0.3750 0.3750 (   353 PWs)   bands (ev):

    -4.0209   0.3200   5.1998   5.1998

          k =-0.8750-0.6250 0.3750 (   344 PWs)   bands (ev):

    -3.4920   0.4319   2.9550   4.3517

          k = 0.3750-0.3750 1.1250 (   347 PWs)   bands (ev):

    -2.7808  -0.3738   2.2779   4.3939

          k =-0.1250-1.3750 1.1250 (   352 PWs)   bands (ev):

    -2.2324  -0.6632   2.2073   3.3135

          k = 0.1250-0.3750 0.3750 (   341 PWs)   bands (ev):

    -4.4668   1.6528   3.9715   5.5156

          k =-0.3750-1.3750 0.3750 (   348 PWs)   bands (ev):

    -3.2897  -0.4857   4.0052   4.7208

          k = 0.3750-0.3750-0.1250 (   341 PWs)   bands (ev):

    -4.4668   1.6528   3.9715   5.5156

          k =-0.1250-1.3750-0.1250 (   340 PWs)   bands (ev):

    -3.9210   1.3416   3.6071   4.0695

          k =-0.6250 0.3750-0.3750 (   348 PWs)   bands (ev):

    -3.2897  -0.4857   4.0052   4.7208

          k =-1.1250-0.6250-0.3750 (   344 PWs)   bands (ev):

    -3.4920   0.4319   2.9550   4.3517

          k =-0.3750 0.3750 0.6250 (   348 PWs)   bands (ev):

    -3.2897  -0.4857   4.0052   4.7208

          k =-0.8750-0.6250 0.6250 (   341 PWs)   bands (ev):

    -4.4668   1.6528   3.9715   5.5156

          k =-0.3750 0.1250-0.1250 (   343 PWs)   bands (ev):

    -4.9790   3.0633   4.9657   5.0478

          k =-0.8750-0.8750-0.1250 (   344 PWs)   bands (ev):

    -2.4106  -0.5591   2.8349   3.5914

          k =-0.1250 0.1250 0.3750 (   343 PWs)   bands (ev):

    -4.9790   3.0633   4.9657   5.0478

          k =-0.6250-0.8750 0.3750 (   344 PWs)   bands (ev):

    -3.4920   0.4319   2.9550   4.3517

          k = 0.1250 0.6250-0.1250 (   340 PWs)   bands (ev):

    -3.9210   1.3416   3.6071   4.0695

          k =-0.3750-0.3750-0.1250 (   341 PWs)   bands (ev):

    -4.4668   1.6528   3.9715   5.5156

          k = 0.6250 0.1250-0.1250 (   340 PWs)   bands (ev):

    -3.9210   1.3416   3.6071   4.0695

          k = 0.1250-0.8750-0.1250 (   344 PWs)   bands (ev):

    -2.4106  -0.5591   2.8349   3.5914

          k =-0.8750 0.1250-0.6250 (   352 PWs)   bands (ev):

    -2.2324  -0.6632   2.2073   3.3135

          k =-1.3750-0.8750-0.6250 (   341 PWs)   bands (ev):

    -4.4668   1.6528   3.9715   5.5156

          k = 0.8750-0.1250 0.6250 (   352 PWs)   bands (ev):

    -2.2324  -0.6632   2.2073   3.3135

          k = 0.3750-1.1250 0.6250 (   344 PWs)   bands (ev):

    -3.4920   0.4319   2.9550   4.3517

          k =-0.6250 0.1250 0.8750 (   352 PWs)   bands (ev):

    -2.2324  -0.6632   2.2073   3.3135

          k =-1.1250-0.8750 0.8750 (   335 PWs)   bands (ev):

    -5.5198   4.6951   6.0042   6.0042

          k =-0.1250 0.8750 0.6250 (   352 PWs)   bands (ev):

    -2.2324  -0.6632   2.2073   3.3135

          k =-0.6250-0.1250 0.6250 (   347 PWs)   bands (ev):

    -2.7808  -0.3738   2.2779   4.3939

          k = 0.1250 0.8750-0.6250 (   352 PWs)   bands (ev):

    -2.2324  -0.6632   2.2073   3.3135

          k =-0.3750-0.1250-0.6250 (   344 PWs)   bands (ev):

    -3.4920   0.4319   2.9550   4.3517

          k =-0.6250-0.1250-0.3750 (   344 PWs)   bands (ev):

    -3.4920   0.4319   2.9550   4.3517

          k =-1.1250-1.1250-0.3750 (   340 PWs)   bands (ev):

    -3.9210   1.3416   3.6071   4.0695

          k = 0.6250 0.1250 0.3750 (   344 PWs)   bands (ev):

    -3.4920   0.4319   2.9550   4.3517

          k = 0.1250-0.8750 0.3750 (   352 PWs)   bands (ev):

    -2.2324  -0.6632   2.2073   3.3135

          k =-0.3750-0.1250 0.6250 (   344 PWs)   bands (ev):

    -3.4920   0.4319   2.9550   4.3517

          k =-0.8750-1.1250 0.6250 (   343 PWs)   bands (ev):

    -4.9790   3.0633   4.9657   5.0478

          k = 0.1250 0.6250 0.3750 (   344 PWs)   bands (ev):

    -3.4920   0.4319   2.9550   4.3517

          k =-0.3750-0.3750 0.3750 (   353 PWs)   bands (ev):

    -4.0209   0.3200   5.1998   5.1998

          k =-0.1250 0.6250-0.3750 (   344 PWs)   bands (ev):

    -3.4920   0.4319   2.9550   4.3517

          k =-0.6250-0.3750-0.3750 (   348 PWs)   bands (ev):

    -3.2897  -0.4857   4.0052   4.7208

          k = 0.1250-0.8750-0.1250 (   344 PWs)   bands (ev):

    -2.4106  -0.5591   2.8349   3.5914

          k =-0.3750-1.8750-0.1250 (   343 PWs)   bands (ev):

    -4.9790   3.0633   4.9657   5.0478

          k =-0.8750 0.1250-0.1250 (   344 PWs)   bands (ev):

    -2.4106  -0.5591   2.8349   3.5914

          k =-1.3750-0.8750-0.1250 (   352 PWs)   bands (ev):

    -2.2324  -0.6632   2.2073   3.3135

          k =-1.1250 0.3750-0.3750 (   347 PWs)   bands (ev):

    -2.7808  -0.3738   2.2779   4.3939

          k =-1.6250-0.6250-0.3750 (   348 PWs)   bands (ev):

    -3.2897  -0.4857   4.0052   4.7208

          k =-0.3750 0.3750 1.1250 (   347 PWs)   bands (ev):

    -2.7808  -0.3738   2.2779   4.3939

          k =-0.8750-0.6250 1.1250 (   343 PWs)   bands (ev):

    -4.9790   3.0633   4.9657   5.0478

     highest occupied level (ev):     6.0042

     Writing output data file silicon.10.23.save

                                                                                

     bravais-lattice index     =            2
     lattice parameter (alat)  =      10.2300  a.u.
     unit-cell volume          =     267.6498 (a.u.)^3
     number of atoms/cell      =            2
     number of atomic types    =            1
     kinetic-energy cut-off    =      18.0000  Ry
     charge density cut-off    =      72.0000  Ry
     convergence threshold     =      1.0E-12
     beta                      =       0.7000
     number of iterations used =            4
     Exchange-correlation      = SLA  PW   PBE  PBE ( 1  4  3  4 0 0)


     celldm(1)=   10.23000  celldm(2)=    0.00000  celldm(3)=    0.00000
     celldm(4)=    0.00000  celldm(5)=    0.00000  celldm(6)=    0.00000

     crystal axes: (cart. coord. in units of alat)
               a(1) = ( -0.5000  0.0000  0.5000 )  
               a(2) = (  0.0000  0.5000  0.5000 )  
               a(3) = ( -0.5000  0.5000  0.0000 )  

     reciprocal axes: (cart. coord. in units 2 pi/alat)
               b(1) = ( -1.0000 -1.0000  1.0000 )  
               b(2) = (  1.0000  1.0000  1.0000 )  
               b(3) = ( -1.0000  1.0000 -1.0000 )  


     Atoms inside the unit cell: 

     Cartesian axes

     site n.  atom      mass           positions (alat units)
        1     Si  28.0860   tau(    1) = (    0.00000    0.00000    0.00000  )
        2     Si  28.0860   tau(    2) = (    0.25000    0.25000    0.25000  )

     Computing dynamical matrix for 
                    q = (  -0.5000000  -1.0000000   0.0000000 )

      8 Sym.Ops. (no q -> -q+G )


     G cutoff =  190.8640  (    683 G-vectors)     FFT grid: ( 20, 20, 20)
     number of k points=    64

     PseudoPot. # 1 for Si read from file:
     /home/max/quantum_espresso/qe-6.1/pseudo/si_pbe_v1.uspp.F.UPF.txt
     MD5 check sum: a056efeee980c13900f22a371efd63c1
     Pseudo is Ultrasoft + core correction, Zval =  4.0
     Generated by new atomic code, or converted to UPF format
     Using radial grid of  899 points,  6 beta functions with: 
                l(1) =   0
                l(2) =   0
                l(3) =   1
                l(4) =   1
                l(5) =   2
                l(6) =   2
     Q(r) pseudized with  8 coefficients,  rinner =    0.900   0.900   0.900
                                                       0.900   0.900


     Atomic displacements:
     There are   3 irreducible representations

     Representation     1      2 modes -  To be done

     Representation     2      2 modes -  To be done

     Representation     3      2 modes -  To be done



     Alpha used in Ewald sum =   0.7000
     PHONON       :  1m 8.40s CPU     1m11.43s WALL



     Representation #  1 modes #   1  2

     Self-consistent Calculation

      iter #   1 total cpu time :    71.7 secs   av.it.:   5.3
      thresh= 1.000E-02 alpha_mix =  0.700 |ddv_scf|^2 =  6.541E-06

      iter #   2 total cpu time :    72.0 secs   av.it.:   9.9
      thresh= 2.558E-04 alpha_mix =  0.700 |ddv_scf|^2 =  3.574E-06

      iter #   3 total cpu time :    72.3 secs   av.it.:   9.2
      thresh= 1.890E-04 alpha_mix =  0.700 |ddv_scf|^2 =  8.176E-09

      iter #   4 total cpu time :    72.6 secs   av.it.:   9.1
      thresh= 9.042E-06 alpha_mix =  0.700 |ddv_scf|^2 =  1.950E-11

      iter #   5 total cpu time :    72.9 secs   av.it.:   9.1
      thresh= 4.415E-07 alpha_mix =  0.700 |ddv_scf|^2 =  5.452E-13

     End of self-consistent calculation

     Convergence has been achieved 


     Representation #  2 modes #   3  4

     Self-consistent Calculation

      iter #   1 total cpu time :    73.2 secs   av.it.:   5.3
      thresh= 1.000E-02 alpha_mix =  0.700 |ddv_scf|^2 =  1.000E-05

      iter #   2 total cpu time :    73.5 secs   av.it.:   9.9
      thresh= 3.162E-04 alpha_mix =  0.700 |ddv_scf|^2 =  1.293E-05

      iter #   3 total cpu time :    73.8 secs   av.it.:   9.0
      thresh= 3.596E-04 alpha_mix =  0.700 |ddv_scf|^2 =  9.499E-09

      iter #   4 total cpu time :    74.1 secs   av.it.:   8.9
      thresh= 9.746E-06 alpha_mix =  0.700 |ddv_scf|^2 =  6.597E-11

      iter #   5 total cpu time :    74.4 secs   av.it.:   9.3
      thresh= 8.122E-07 alpha_mix =  0.700 |ddv_scf|^2 =  1.536E-12

      iter #   6 total cpu time :    74.8 secs   av.it.:   9.1
      thresh= 1.239E-07 alpha_mix =  0.700 |ddv_scf|^2 =  1.338E-14

     End of self-consistent calculation

     Convergence has been achieved 


     Representation #  3 modes #   5  6

     Self-consistent Calculation

      iter #   1 total cpu time :    75.0 secs   av.it.:   5.1
      thresh= 1.000E-02 alpha_mix =  0.700 |ddv_scf|^2 =  2.724E-06

      iter #   2 total cpu time :    75.3 secs   av.it.:   9.7
      thresh= 1.651E-04 alpha_mix =  0.700 |ddv_scf|^2 =  1.503E-06

      iter #   3 total cpu time :    75.6 secs   av.it.:   9.1
      thresh= 1.226E-04 alpha_mix =  0.700 |ddv_scf|^2 =  7.881E-09

      iter #   4 total cpu time :    75.9 secs   av.it.:   8.8
      thresh= 8.878E-06 alpha_mix =  0.700 |ddv_scf|^2 =  4.266E-11

      iter #   5 total cpu time :    76.2 secs   av.it.:   9.1
      thresh= 6.532E-07 alpha_mix =  0.700 |ddv_scf|^2 =  6.983E-13

     End of self-consistent calculation

     Convergence has been achieved 

     Number of q in the star =    6
     List of q in the star:
          1  -0.500000000  -1.000000000   0.000000000
          2   0.000000000   1.000000000   0.500000000
          3   0.000000000  -1.000000000  -0.500000000
          4   0.500000000   1.000000000   0.000000000
          5  -1.000000000  -0.500000000   0.000000000
          6   0.000000000  -0.500000000  -1.000000000

     Diagonalizing the dynamical matrix

     q = (   -0.500000000  -1.000000000   0.000000000 ) 

 **************************************************************************
     freq (    1) =       6.958446 [THz] =     232.108779 [cm-1]
     freq (    2) =       6.958446 [THz] =     232.108779 [cm-1]
     freq (    3) =      11.129575 [THz] =     371.242672 [cm-1]
     freq (    4) =      11.129575 [THz] =     371.242672 [cm-1]
     freq (    5) =      14.370517 [THz] =     479.348852 [cm-1]
     freq (    6) =      14.370517 [THz] =     479.348852 [cm-1]
 **************************************************************************

     init_run     :      0.52s CPU      0.53s WALL (       7 calls)
     electrons    :      4.36s CPU      4.57s WALL (       7 calls)

     Called by init_run:
     wfcinit      :      0.00s CPU      0.00s WALL (       7 calls)
     potinit      :      0.02s CPU      0.02s WALL (       7 calls)

     Called by electrons:
     c_bands      :      4.35s CPU      4.55s WALL (       7 calls)
     v_of_rho     :      0.01s CPU      0.01s WALL (       8 calls)
     newd         :      0.03s CPU      0.03s WALL (       8 calls)

     Called by c_bands:
     init_us_2    :      0.64s CPU      0.67s WALL (   17588 calls)
     cegterg      :      3.67s CPU      3.83s WALL (     796 calls)

     Called by sum_band:

     Called by *egterg:
     h_psi        :     40.62s CPU     42.53s WALL (  151950 calls)
     s_psi        :      5.57s CPU      5.84s WALL (  308698 calls)
     g_psi        :      0.03s CPU      0.03s WALL (    9190 calls)
     cdiaghg      :      0.42s CPU      0.44s WALL (    9986 calls)

     Called by h_psi:
     h_psi:pot    :     40.44s CPU     42.34s WALL (  151950 calls)
     h_psi:calbec :      3.89s CPU      4.07s WALL (  151950 calls)
     vloc_psi     :     33.56s CPU     35.14s WALL (  151950 calls)
     add_vuspsi   :      2.78s CPU      2.91s WALL (  151950 calls)

     General routines
     calbec       :      8.59s CPU      8.99s WALL (  345070 calls)
     fft          :      0.26s CPU      0.27s WALL (    5239 calls)
     ffts         :      0.13s CPU      0.13s WALL (    2748 calls)
     fftw         :     38.76s CPU     40.57s WALL ( 1376626 calls)
     davcio       :      0.30s CPU      0.32s WALL (   79045 calls)

     Parallel routines
     fft_scatter  :      6.95s CPU      7.30s WALL ( 1384613 calls)

     PHONON       :  1m12.96s CPU     1m16.26s WALL

     INITIALIZATION: 
     phq_setup    :      0.05s CPU      0.05s WALL (       8 calls)
     phq_init     :      1.87s CPU      1.91s WALL (       8 calls)

     phq_init     :      1.87s CPU      1.91s WALL (       8 calls)
     set_drhoc    :      0.28s CPU      0.28s WALL (      24 calls)
     init_vloc    :      0.01s CPU      0.01s WALL (       8 calls)
     init_us_1    :      0.48s CPU      0.48s WALL (       8 calls)
     newd         :      0.03s CPU      0.03s WALL (       8 calls)
     dvanqq       :      0.22s CPU      0.22s WALL (       8 calls)
     drho         :      0.96s CPU      0.99s WALL (       8 calls)

     DYNAMICAL MATRIX:
     dynmat0      :      0.47s CPU      0.47s WALL (       8 calls)
     phqscf       :     63.79s CPU     66.74s WALL (       8 calls)
     dynmatrix    :      0.01s CPU      0.02s WALL (       8 calls)

     phqscf       :     63.79s CPU     66.74s WALL (       8 calls)
     solve_linter :     63.13s CPU     66.04s WALL (      32 calls)
     drhodv       :      0.47s CPU      0.49s WALL (      32 calls)

     dynmat0      :      0.47s CPU      0.47s WALL (       8 calls)
     dynmat_us    :      0.26s CPU      0.26s WALL (       8 calls)
     d2ionq       :      0.01s CPU      0.01s WALL (       8 calls)
     dynmatcc     :      0.20s CPU      0.20s WALL (       8 calls)

     dynmat_us    :      0.26s CPU      0.26s WALL (       8 calls)
     addusdynmat  :      0.00s CPU      0.00s WALL (       8 calls)

     phqscf       :     63.79s CPU     66.74s WALL (       8 calls)
     solve_linter :     63.13s CPU     66.04s WALL (      32 calls)

     solve_linter :     63.13s CPU     66.04s WALL (      32 calls)
     dvqpsi_us    :      1.57s CPU      1.64s WALL (    2508 calls)
     ortho        :      0.89s CPU      0.93s WALL (   15550 calls)
     cgsolve      :     49.33s CPU     51.66s WALL (   15550 calls)
     incdrhoscf   :      4.36s CPU      4.56s WALL (   15550 calls)
     addusddens   :      1.05s CPU      1.06s WALL (     228 calls)
     vpsifft      :      3.19s CPU      3.35s WALL (   12922 calls)
     dv_of_drho   :      0.20s CPU      0.20s WALL (     295 calls)
     mix_pot      :      0.05s CPU      0.06s WALL (     201 calls)
     psymdvscf    :      0.83s CPU      0.83s WALL (     196 calls)
     newdq        :      1.12s CPU      1.16s WALL (     201 calls)
     adddvscf     :      0.45s CPU      0.47s WALL (   13042 calls)
     drhodvus     :      0.00s CPU      0.00s WALL (      32 calls)

     dvqpsi_us    :      1.57s CPU      1.64s WALL (    2508 calls)
     dvqpsi_us_on :      0.81s CPU      0.84s WALL (    2508 calls)

     cgsolve      :     49.33s CPU     51.66s WALL (   15550 calls)
     ch_psi       :     47.93s CPU     50.18s WALL (  141168 calls)

     ch_psi       :     47.93s CPU     50.18s WALL (  141168 calls)
     h_psi        :     40.62s CPU     42.53s WALL (  151950 calls)
     last         :      7.43s CPU      7.78s WALL (  141168 calls)

     h_psi        :     40.62s CPU     42.53s WALL (  151950 calls)
     add_vuspsi   :      2.78s CPU      2.91s WALL (  151950 calls)

     incdrhoscf   :      4.36s CPU      4.56s WALL (   15550 calls)
     addusdbec    :      0.57s CPU      0.60s WALL (   17998 calls)

     drhodvus     :      0.00s CPU      0.00s WALL (      32 calls)

      General routines
     calbec       :      8.59s CPU      8.99s WALL (  345070 calls)
     fft          :      0.26s CPU      0.27s WALL (    5239 calls)
     ffts         :      0.13s CPU      0.13s WALL (    2748 calls)
     fftw         :     38.76s CPU     40.57s WALL ( 1376626 calls)
     davcio       :      0.30s CPU      0.32s WALL (   79045 calls)
     write_rec    :      0.20s CPU      0.22s WALL (     233 calls)


     PHONON       :  1m12.96s CPU     1m16.26s WALL


   This run was terminated on:   1: 9:47   9Nov2017            

=------------------------------------------------------------------------------=
   JOB DONE.
=------------------------------------------------------------------------------=
