
     Program PWSCF v.6.1 (svn rev. 13369) starts on 10Nov2017 at 10:14:34 

     This program is part of the open-source Quantum ESPRESSO suite
     for quantum simulation of materials; please cite
         "P. Giannozzi et al., J. Phys.:Condens. Matter 21 395502 (2009);
          URL http://www.quantum-espresso.org", 
     in publications or presentations arising from this work. More details at
     http://www.quantum-espresso.org/quote

     Parallel version (MPI), running on     4 processors
     R & G space division:  proc/nbgrp/npool/nimage =       4
     Waiting for input...
     Reading input from standard input
     Message from routine read_cards :
     DEPRECATED: no units specified in ATOMIC_POSITIONS card
     Message from routine read_cards :
     ATOMIC_POSITIONS: units set to alat

     Current dimensions of program PWSCF are:
     Max number of different atomic species (ntypx) = 10
     Max number of k-points (npk) =  40000
     Max angular momentum in pseudopotentials (lmaxx) =  3

     Subspace diagonalization in iterative solution of the eigenvalue problem:
     a serial algorithm will be used


     Parallelization info
     --------------------
     sticks:   dense  smooth     PW     G-vecs:    dense   smooth      PW
     Min         217     108     37                 4288     1495     301
     Max         219     109     38                 4289     1498     304
     Sum         871     433    151                17153     5985    1211



     bravais-lattice index     =            2
     lattice parameter (alat)  =      10.3000  a.u.
     unit-cell volume          =     273.1818 (a.u.)^3
     number of atoms/cell      =            2
     number of atomic types    =            1
     number of electrons       =         8.00
     number of Kohn-Sham states=            4
     kinetic-energy cutoff     =      30.0000  Ry
     charge density cutoff     =     240.0000  Ry
     convergence threshold     =      1.0E-08
     mixing beta               =       0.7000
     number of iterations used =            8  plain     mixing
     Exchange-correlation      = SLA  PW   PBE  PBE ( 1  4  3  4 0 0)

     celldm(1)=  10.300000  celldm(2)=   0.000000  celldm(3)=   0.000000
     celldm(4)=   0.000000  celldm(5)=   0.000000  celldm(6)=   0.000000

     crystal axes: (cart. coord. in units of alat)
               a(1) = (  -0.500000   0.000000   0.500000 )  
               a(2) = (   0.000000   0.500000   0.500000 )  
               a(3) = (  -0.500000   0.500000   0.000000 )  

     reciprocal axes: (cart. coord. in units 2 pi/alat)
               b(1) = ( -1.000000 -1.000000  1.000000 )  
               b(2) = (  1.000000  1.000000  1.000000 )  
               b(3) = ( -1.000000  1.000000 -1.000000 )  


     PseudoPot. # 1 for Si read from file:
     /home/max/quantum_espresso/qe-6.1/pseudo/si_pbe_v1.uspp.F.UPF.txt
     MD5 check sum: a056efeee980c13900f22a371efd63c1
     Pseudo is Ultrasoft + core correction, Zval =  4.0
     Generated by new atomic code, or converted to UPF format
     Using radial grid of  899 points,  6 beta functions with: 
                l(1) =   0
                l(2) =   0
                l(3) =   1
                l(4) =   1
                l(5) =   2
                l(6) =   2
     Q(r) pseudized with  8 coefficients,  rinner =    0.900   0.900   0.900
                                                       0.900   0.900

     atomic species   valence    mass     pseudopotential
        Si             4.00    28.08600     Si( 1.00)

     48 Sym. Ops., with inversion, found (24 have fractional translation)



   Cartesian axes

     site n.     atom                  positions (alat units)
         1           Si  tau(   1) = (   0.0000000   0.0000000   0.0000000  )
         2           Si  tau(   2) = (   0.2500000   0.2500000   0.2500000  )

     number of k points=    28
                       cart. coord. in units 2pi/alat
        k(    1) = (  -0.0833333   0.0833333   0.0833333), wk =   0.0185185
        k(    2) = (  -0.2500000   0.2500000  -0.0833333), wk =   0.0555556
        k(    3) = (  -0.4166667   0.4166667  -0.2500000), wk =   0.0555556
        k(    4) = (   0.4166667  -0.4166667   0.5833333), wk =   0.0555556
        k(    5) = (   0.2500000  -0.2500000   0.4166667), wk =   0.0555556
        k(    6) = (   0.0833333  -0.0833333   0.2500000), wk =   0.0555556
        k(    7) = (  -0.0833333   0.4166667   0.0833333), wk =   0.0555556
        k(    8) = (  -0.2500000   0.5833333  -0.0833333), wk =   0.1111111
        k(    9) = (   0.5833333  -0.2500000   0.7500000), wk =   0.1111111
        k(   10) = (   0.4166667  -0.0833333   0.5833333), wk =   0.1111111
        k(   11) = (   0.2500000   0.0833333   0.4166667), wk =   0.1111111
        k(   12) = (  -0.0833333   0.7500000   0.0833333), wk =   0.0555556
        k(   13) = (   0.7500000  -0.0833333   0.9166667), wk =   0.1111111
        k(   14) = (   0.5833333   0.0833333   0.7500000), wk =   0.1111111
        k(   15) = (   0.4166667   0.2500000   0.5833333), wk =   0.1111111
        k(   16) = (  -0.0833333  -0.9166667   0.0833333), wk =   0.0555556
        k(   17) = (  -0.2500000  -0.7500000  -0.0833333), wk =   0.1111111
        k(   18) = (  -0.0833333  -0.5833333   0.0833333), wk =   0.0555556
        k(   19) = (  -0.2500000   0.2500000   0.2500000), wk =   0.0185185
        k(   20) = (  -0.4166667   0.4166667   0.0833333), wk =   0.0555556
        k(   21) = (   0.4166667  -0.4166667   0.9166667), wk =   0.0555556
        k(   22) = (   0.2500000  -0.2500000   0.7500000), wk =   0.0555556
        k(   23) = (  -0.2500000   0.5833333   0.2500000), wk =   0.0555556
        k(   24) = (   0.5833333  -0.2500000   1.0833333), wk =   0.1111111
        k(   25) = (   0.4166667  -0.0833333   0.9166667), wk =   0.1111111
        k(   26) = (  -0.2500000  -1.0833333   0.2500000), wk =   0.0555556
        k(   27) = (  -0.4166667   0.4166667   0.4166667), wk =   0.0185185
        k(   28) = (   0.4166667  -0.4166667   1.2500000), wk =   0.0555556

     Dense  grid:    17153 G-vectors     FFT dimensions: (  36,  36,  36)

     Smooth grid:     5985 G-vectors     FFT dimensions: (  25,  25,  25)

     Estimated max dynamical RAM per process >       3.04MB

     Estimated total allocated dynamical RAM >      12.15MB

     Initial potential from superposition of free atoms

     starting charge    7.99866, renormalised to    8.00000
     Starting wfc are    8 randomized atomic wfcs

     total cpu time spent up to now is        0.5 secs

     per-process dynamical memory:    10.1 Mb

     Self-consistent Calculation

     iteration #  1     ecut=    30.00 Ry     beta=0.70
     Davidson diagonalization with overlap
     ethr =  1.00E-02,  avg # of iterations =  2.0

     Threshold (ethr) on eigenvalues was too large:
     Diagonalizing with lowered threshold

     Davidson diagonalization with overlap
     ethr =  6.89E-04,  avg # of iterations =  1.0

     total cpu time spent up to now is        0.9 secs

     total energy              =     -19.19110341 Ry
     Harris-Foulkes estimate   =     -19.20394970 Ry
     estimated scf accuracy    <       0.05453033 Ry

     iteration #  2     ecut=    30.00 Ry     beta=0.70
     Davidson diagonalization with overlap
     ethr =  6.82E-04,  avg # of iterations =  1.0

     total cpu time spent up to now is        1.1 secs

     total energy              =     -19.19291717 Ry
     Harris-Foulkes estimate   =     -19.19308651 Ry
     estimated scf accuracy    <       0.00244068 Ry

     iteration #  3     ecut=    30.00 Ry     beta=0.70
     Davidson diagonalization with overlap
     ethr =  3.05E-05,  avg # of iterations =  2.0

     total cpu time spent up to now is        1.3 secs

     total energy              =     -19.19325061 Ry
     Harris-Foulkes estimate   =     -19.19326408 Ry
     estimated scf accuracy    <       0.00004390 Ry

     iteration #  4     ecut=    30.00 Ry     beta=0.70
     Davidson diagonalization with overlap
     ethr =  5.49E-07,  avg # of iterations =  3.4

     total cpu time spent up to now is        1.6 secs

     total energy              =     -19.19329252 Ry
     Harris-Foulkes estimate   =     -19.19329346 Ry
     estimated scf accuracy    <       0.00000334 Ry

     iteration #  5     ecut=    30.00 Ry     beta=0.70
     Davidson diagonalization with overlap
     ethr =  4.18E-08,  avg # of iterations =  2.0

     total cpu time spent up to now is        1.8 secs

     total energy              =     -19.19329297 Ry
     Harris-Foulkes estimate   =     -19.19329297 Ry
     estimated scf accuracy    <       0.00000001 Ry

     iteration #  6     ecut=    30.00 Ry     beta=0.70
     Davidson diagonalization with overlap
     ethr =  1.27E-10,  avg # of iterations =  4.0

     total cpu time spent up to now is        2.3 secs

     End of self-consistent calculation

          k =-0.0833 0.0833 0.0833 (   743 PWs)   bands (ev):

    -5.7150   5.2203   5.9366   5.9366

          k =-0.2500 0.2500-0.0833 (   762 PWs)   bands (ev):

    -5.2414   3.1459   4.7084   5.7269

          k =-0.4167 0.4167-0.2500 (   764 PWs)   bands (ev):

    -4.1569   0.3990   4.2451   5.0933

          k = 0.4167-0.4167 0.5833 (   763 PWs)   bands (ev):

    -3.4648  -0.7368   4.3103   4.7151

          k = 0.2500-0.2500 0.4167 (   764 PWs)   bands (ev):

    -4.5656   1.2405   4.7754   4.8068

          k = 0.0833-0.0833 0.2500 (   761 PWs)   bands (ev):

    -5.4759   4.1530   5.2948   5.4786

          k =-0.0833 0.4167 0.0833 (   762 PWs)   bands (ev):

    -5.0017   2.9555   4.5529   4.5690

          k =-0.2500 0.5833-0.0833 (   761 PWs)   bands (ev):

    -4.0975   1.1242   3.2432   4.1842

          k = 0.5833-0.2500 0.7500 (   752 PWs)   bands (ev):

    -2.9903  -0.6136   2.6435   3.9587

          k = 0.4167-0.0833 0.5833 (   762 PWs)   bands (ev):

    -3.7060   0.4360   2.6039   4.4418

          k = 0.2500 0.0833 0.4167 (   764 PWs)   bands (ev):

    -4.7779   2.1244   3.9360   5.1052

          k =-0.0833 0.7500 0.0833 (   761 PWs)   bands (ev):

    -3.3903   0.2984   3.2085   3.5458

          k = 0.7500-0.0833 0.9167 (   751 PWs)   bands (ev):

    -2.2027  -1.0343   2.3729   3.1424

          k = 0.5833 0.0833 0.7500 (   749 PWs)   bands (ev):

    -2.5729  -0.6980   1.8923   3.6845

          k = 0.4167 0.2500 0.5833 (   762 PWs)   bands (ev):

    -3.5955  -0.2407   3.5376   4.5387

          k =-0.0833-0.9167 0.0833 (   759 PWs)   bands (ev):

    -2.2932  -1.0420   2.9406   3.3315

          k =-0.2500-0.7500-0.0833 (   757 PWs)   bands (ev):

    -3.2232   0.0768   2.6916   3.4808

          k =-0.0833-0.5833 0.0833 (   757 PWs)   bands (ev):

    -4.3015   1.6580   3.7496   3.9658

          k =-0.2500 0.2500 0.2500 (   757 PWs)   bands (ev):

    -5.0134   2.1729   5.3260   5.3260

          k =-0.4167 0.4167 0.0833 (   755 PWs)   bands (ev):

    -4.3389   1.2408   3.2073   5.1573

          k = 0.4167-0.4167 0.9167 (   761 PWs)   bands (ev):

    -3.1686  -0.1945   2.1079   4.3759

          k = 0.2500-0.2500 0.7500 (   758 PWs)   bands (ev):

    -3.1164  -0.2735   2.5828   3.8969

          k =-0.2500 0.5833 0.2500 (   761 PWs)   bands (ev):

    -3.9179   0.4383   3.6669   4.2680

          k = 0.5833-0.2500 1.0833 (   755 PWs)   bands (ev):

    -2.9230  -0.3091   2.2077   3.4791

          k = 0.4167-0.0833 0.9167 (   750 PWs)   bands (ev):

    -2.0977  -1.0421   2.0460   2.8164

          k =-0.2500-1.0833 0.2500 (   748 PWs)   bands (ev):

    -2.3072  -0.9469   1.9205   3.7035

          k =-0.4167 0.4167 0.4167 (   763 PWs)   bands (ev):

    -3.8307  -0.3391   4.9391   4.9391

          k = 0.4167-0.4167 1.2500 (   757 PWs)   bands (ev):

    -3.2305  -0.6410   3.1149   4.5019

     highest occupied level (ev):     5.9366

!    total energy              =     -19.19329301 Ry
     Harris-Foulkes estimate   =     -19.19329301 Ry
     estimated scf accuracy    <          1.0E-09 Ry

     The total energy is the sum of the following terms:

     one-electron contribution =       5.02523348 Ry
     hartree contribution      =       1.12534213 Ry
     xc contribution           =      -8.60818537 Ry
     ewald contribution        =     -16.73568325 Ry

     convergence has been achieved in   6 iterations

     Writing output data file silicon.10.30.save

     init_run     :      0.32s CPU      0.38s WALL (       1 calls)
     electrons    :      1.45s CPU      1.82s WALL (       1 calls)

     Called by init_run:
     wfcinit      :      0.06s CPU      0.09s WALL (       1 calls)
     potinit      :      0.02s CPU      0.02s WALL (       1 calls)

     Called by electrons:
     c_bands      :      0.87s CPU      1.17s WALL (       7 calls)
     sum_band     :      0.34s CPU      0.38s WALL (       7 calls)
     v_of_rho     :      0.09s CPU      0.11s WALL (       7 calls)
     newd         :      0.16s CPU      0.18s WALL (       7 calls)
     mix_rho      :      0.01s CPU      0.01s WALL (       7 calls)

     Called by c_bands:
     init_us_2    :      0.05s CPU      0.06s WALL (     420 calls)
     cegterg      :      0.75s CPU      1.02s WALL (     196 calls)

     Called by sum_band:
     sum_band:bec :      0.00s CPU      0.00s WALL (     196 calls)
     addusdens    :      0.16s CPU      0.17s WALL (       7 calls)

     Called by *egterg:
     h_psi        :      0.62s CPU      0.83s WALL (     658 calls)
     s_psi        :      0.05s CPU      0.06s WALL (     658 calls)
     g_psi        :      0.00s CPU      0.00s WALL (     434 calls)
     cdiaghg      :      0.04s CPU      0.06s WALL (     602 calls)

     Called by h_psi:
     h_psi:pot    :      0.61s CPU      0.83s WALL (     658 calls)
     h_psi:calbec :      0.07s CPU      0.11s WALL (     658 calls)
     vloc_psi     :      0.49s CPU      0.66s WALL (     658 calls)
     add_vuspsi   :      0.05s CPU      0.06s WALL (     658 calls)

     General routines
     calbec       :      0.09s CPU      0.13s WALL (     854 calls)
     fft          :      0.07s CPU      0.09s WALL (     112 calls)
     ffts         :      0.00s CPU      0.00s WALL (      14 calls)
     fftw         :      0.50s CPU      0.68s WALL (    5720 calls)
     interpolate  :      0.01s CPU      0.01s WALL (      14 calls)
     davcio       :      0.00s CPU      0.00s WALL (      28 calls)

     Parallel routines
     fft_scatter  :      0.24s CPU      0.38s WALL (    5846 calls)

     PWSCF        :     1.98s CPU         2.43s WALL


   This run was terminated on:  10:14:36  10Nov2017            

=------------------------------------------------------------------------------=
   JOB DONE.
=------------------------------------------------------------------------------=
