
     Program PHONON v.6.1 (svn rev. 13369) starts on  9Nov2017 at 12:47:34 

     This program is part of the open-source Quantum ESPRESSO suite
     for quantum simulation of materials; please cite
         "P. Giannozzi et al., J. Phys.:Condens. Matter 21 395502 (2009);
          URL http://www.quantum-espresso.org", 
     in publications or presentations arising from this work. More details at
     http://www.quantum-espresso.org/quote

     Parallel version (MPI), running on     4 processors
     R & G space division:  proc/nbgrp/npool/nimage =       4

     Reading data from directory:
     ./silicon.10.346.save

   Info: using nr1, nr2, nr3 values from input

   Info: using nr1, nr2, nr3 values from input

     IMPORTANT: XC functional enforced from input :
     Exchange-correlation      = SLA  PW   PBE  PBE ( 1  4  3  4 0 0)
     Any further DFT definition will be discarded
     Please, verify this is what you really want


     Parallelization info
     --------------------
     sticks:   dense  smooth     PW     G-vecs:    dense   smooth      PW
     Min          64      64     22                  709      709     140
     Max          67      67     23                  710      710     141
     Sum         265     265     91                 2837     2837     561


     Check: negative/imaginary core charge=   -0.000006    0.000000


     Dynamical matrices for ( 4, 4, 4)  uniform grid of q-points
     (   8q-points):
       N         xq(1)         xq(2)         xq(3) 
       1   0.000000000   0.000000000   0.000000000
       2  -0.250000000   0.250000000  -0.250000000
       3   0.500000000  -0.500000000   0.500000000
       4   0.000000000   0.500000000   0.000000000
       5   0.750000000  -0.250000000   0.750000000
       6   0.500000000   0.000000000   0.500000000
       7   0.000000000  -1.000000000   0.000000000
       8  -0.500000000  -1.000000000   0.000000000

     Calculation of q =    0.0000000   0.0000000   0.0000000

                                                                                

     bravais-lattice index     =            2
     lattice parameter (alat)  =      10.3460  a.u.
     unit-cell volume          =     276.8582 (a.u.)^3
     number of atoms/cell      =            2
     number of atomic types    =            1
     kinetic-energy cut-off    =      18.0000  Ry
     charge density cut-off    =      72.0000  Ry
     convergence threshold     =      1.0E-12
     beta                      =       0.7000
     number of iterations used =            4
     Exchange-correlation      = SLA  PW   PBE  PBE ( 1  4  3  4 0 0)


     celldm(1)=   10.34600  celldm(2)=    0.00000  celldm(3)=    0.00000
     celldm(4)=    0.00000  celldm(5)=    0.00000  celldm(6)=    0.00000

     crystal axes: (cart. coord. in units of alat)
               a(1) = ( -0.5000  0.0000  0.5000 )  
               a(2) = (  0.0000  0.5000  0.5000 )  
               a(3) = ( -0.5000  0.5000  0.0000 )  

     reciprocal axes: (cart. coord. in units 2 pi/alat)
               b(1) = ( -1.0000 -1.0000  1.0000 )  
               b(2) = (  1.0000  1.0000  1.0000 )  
               b(3) = ( -1.0000  1.0000 -1.0000 )  


     Atoms inside the unit cell: 

     Cartesian axes

     site n.  atom      mass           positions (alat units)
        1     Si  28.0860   tau(    1) = (    0.00000    0.00000    0.00000  )
        2     Si  28.0860   tau(    2) = (    0.25000    0.25000    0.25000  )

     Computing dynamical matrix for 
                    q = (   0.0000000   0.0000000   0.0000000 )

     49 Sym.Ops. (with q -> -q+G )


     G cutoff =  195.2170  (    710 G-vectors)     FFT grid: ( 20, 20, 20)
     number of k points=    10

     PseudoPot. # 1 for Si read from file:
     /home/max/quantum_espresso/qe-6.1/pseudo/si_pbe_v1.uspp.F.UPF.txt
     MD5 check sum: a056efeee980c13900f22a371efd63c1
     Pseudo is Ultrasoft + core correction, Zval =  4.0
     Generated by new atomic code, or converted to UPF format
     Using radial grid of  899 points,  6 beta functions with: 
                l(1) =   0
                l(2) =   0
                l(3) =   1
                l(4) =   1
                l(5) =   2
                l(6) =   2
     Q(r) pseudized with  8 coefficients,  rinner =    0.900   0.900   0.900
                                                       0.900   0.900

     Mode symmetry, O_h (m-3m)  point group:


     Electric field:
     Dielectric constant
     Born effective charges in two ways 


     Atomic displacements:
     There are   2 irreducible representations

     Representation     1      3 modes -T_2g G_25' G_5+  To be done

     Representation     2      3 modes -T_1u G_15  G_4-  To be done



     Alpha used in Ewald sum =   0.7000
     PHONON       :     0.42s CPU         0.43s WALL


     Electric Fields Calculation

      iter #   1 total cpu time :     0.9 secs   av.it.:   5.6
      thresh= 1.000E-02 alpha_mix =  0.700 |ddv_scf|^2 =  9.361E-07

      iter #   2 total cpu time :     1.2 secs   av.it.:   9.9
      thresh= 9.675E-05 alpha_mix =  0.700 |ddv_scf|^2 =  5.971E-08

      iter #   3 total cpu time :     1.4 secs   av.it.:   9.8
      thresh= 2.443E-05 alpha_mix =  0.700 |ddv_scf|^2 =  4.698E-09

      iter #   4 total cpu time :     1.6 secs   av.it.:   9.0
      thresh= 6.854E-06 alpha_mix =  0.700 |ddv_scf|^2 =  2.823E-11

      iter #   5 total cpu time :     1.8 secs   av.it.:   9.1
      thresh= 5.313E-07 alpha_mix =  0.700 |ddv_scf|^2 =  1.464E-14

     End of electric fields calculation

          Dielectric constant in cartesian axis 

          (      13.897239565       0.000000000       0.000000000 )
          (       0.000000000      13.897239565       0.000000000 )
          (       0.000000000      -0.000000000      13.897239565 )

          Effective charges (d Force / dE) in cartesian axis

           atom      1   Si 
      Ex  (       -0.03556        0.00000        0.00000 )
      Ey  (       -0.00000       -0.03556        0.00000 )
      Ez  (        0.00000        0.00000       -0.03556 )
           atom      2   Si 
      Ex  (       -0.03556       -0.00000       -0.00000 )
      Ey  (       -0.00000       -0.03556       -0.00000 )
      Ez  (       -0.00000        0.00000       -0.03556 )


     Representation #  1 modes #   1  2  3

     Self-consistent Calculation

      iter #   1 total cpu time :     2.3 secs   av.it.:   4.9
      thresh= 1.000E-02 alpha_mix =  0.700 |ddv_scf|^2 =  2.236E-07

      iter #   2 total cpu time :     2.5 secs   av.it.:   9.8
      thresh= 4.729E-05 alpha_mix =  0.700 |ddv_scf|^2 =  1.385E-08

      iter #   3 total cpu time :     2.7 secs   av.it.:   9.2
      thresh= 1.177E-05 alpha_mix =  0.700 |ddv_scf|^2 =  8.597E-10

      iter #   4 total cpu time :     2.9 secs   av.it.:   9.0
      thresh= 2.932E-06 alpha_mix =  0.700 |ddv_scf|^2 =  1.902E-12

      iter #   5 total cpu time :     3.3 secs   av.it.:   9.5
      thresh= 1.379E-07 alpha_mix =  0.700 |ddv_scf|^2 =  1.340E-14

     End of self-consistent calculation

     Convergence has been achieved 


     Representation #  2 modes #   4  5  6

     Self-consistent Calculation

      iter #   1 total cpu time :     3.5 secs   av.it.:   5.0
      thresh= 1.000E-02 alpha_mix =  0.700 |ddv_scf|^2 =  1.852E-07

      iter #   2 total cpu time :     3.7 secs   av.it.:   9.6
      thresh= 4.304E-05 alpha_mix =  0.700 |ddv_scf|^2 =  1.503E-08

      iter #   3 total cpu time :     4.0 secs   av.it.:   9.3
      thresh= 1.226E-05 alpha_mix =  0.700 |ddv_scf|^2 =  9.133E-10

      iter #   4 total cpu time :     4.2 secs   av.it.:   9.5
      thresh= 3.022E-06 alpha_mix =  0.700 |ddv_scf|^2 =  5.328E-12

      iter #   5 total cpu time :     4.4 secs   av.it.:   9.0
      thresh= 2.308E-07 alpha_mix =  0.700 |ddv_scf|^2 =  4.657E-15

     End of self-consistent calculation

     Convergence has been achieved 

     Number of q in the star =    1
     List of q in the star:
          1   0.000000000   0.000000000   0.000000000

          Dielectric constant in cartesian axis 

          (      13.897239565       0.000000000       0.000000000 )
          (       0.000000000      13.897239565       0.000000000 )
          (       0.000000000      -0.000000000      13.897239565 )

          Effective charges (d Force / dE) in cartesian axis

           atom      1   Si 
      Ex  (       -0.03556        0.00000        0.00000 )
      Ey  (       -0.00000       -0.03556        0.00000 )
      Ez  (        0.00000        0.00000       -0.03556 )
           atom      2   Si 
      Ex  (       -0.03556       -0.00000       -0.00000 )
      Ey  (       -0.00000       -0.03556       -0.00000 )
      Ez  (       -0.00000        0.00000       -0.03556 )

          Effective charges (d P / du) in cartesian axis 

           atom      1   Si 
      Px  (       -0.07524        0.00000        0.00000 )
      Py  (        0.00000       -0.07524        0.00000 )
      Pz  (        0.00000        0.00000       -0.07524 )
           atom      2   Si 
      Px  (       -0.07524       -0.00000        0.00000 )
      Py  (        0.00000       -0.07524        0.00000 )
      Pz  (        0.00000       -0.00000       -0.07524 )

     Diagonalizing the dynamical matrix

     q = (    0.000000000   0.000000000   0.000000000 ) 

 **************************************************************************
     freq (    1) =       1.892014 [THz] =      63.110779 [cm-1]
     freq (    2) =       1.892014 [THz] =      63.110779 [cm-1]
     freq (    3) =       1.892014 [THz] =      63.110779 [cm-1]
     freq (    4) =      15.333635 [THz] =     511.475012 [cm-1]
     freq (    5) =      15.333635 [THz] =     511.475012 [cm-1]
     freq (    6) =      15.333635 [THz] =     511.475012 [cm-1]
 **************************************************************************

     Mode symmetry, O_h (m-3m)  point group:

     freq (  1 -  3) =         63.1  [cm-1]   --> T_1u G_15  G_4- I  
     freq (  4 -  6) =        511.5  [cm-1]   --> T_2g G_25' G_5+ R  

     Calculation of q =   -0.2500000   0.2500000  -0.2500000

   Info: using nr1, nr2, nr3 values from input

   Info: using nr1, nr2, nr3 values from input

     Parallelization info
     --------------------
     sticks:   dense  smooth     PW     G-vecs:    dense   smooth      PW
     Min          64      64     24                  709      709     161
     Max          67      67     25                  710      710     162
     Sum         265     265     97                 2837     2837     645



     bravais-lattice index     =            2
     lattice parameter (alat)  =      10.3460  a.u.
     unit-cell volume          =     276.8582 (a.u.)^3
     number of atoms/cell      =            2
     number of atomic types    =            1
     number of electrons       =         8.00
     number of Kohn-Sham states=            4
     kinetic-energy cutoff     =      18.0000  Ry
     charge density cutoff     =      72.0000  Ry
     Exchange-correlation      = SLA  PW   PBE  PBE ( 1  4  3  4 0 0)

     celldm(1)=  10.346000  celldm(2)=   0.000000  celldm(3)=   0.000000
     celldm(4)=   0.000000  celldm(5)=   0.000000  celldm(6)=   0.000000

     crystal axes: (cart. coord. in units of alat)
               a(1) = (  -0.500000   0.000000   0.500000 )  
               a(2) = (   0.000000   0.500000   0.500000 )  
               a(3) = (  -0.500000   0.500000   0.000000 )  

     reciprocal axes: (cart. coord. in units 2 pi/alat)
               b(1) = ( -1.000000 -1.000000  1.000000 )  
               b(2) = (  1.000000  1.000000  1.000000 )  
               b(3) = ( -1.000000  1.000000 -1.000000 )  


     PseudoPot. # 1 for Si read from file:
     /home/max/quantum_espresso/qe-6.1/pseudo/si_pbe_v1.uspp.F.UPF.txt
     MD5 check sum: a056efeee980c13900f22a371efd63c1
     Pseudo is Ultrasoft + core correction, Zval =  4.0
     Generated by new atomic code, or converted to UPF format
     Using radial grid of  899 points,  6 beta functions with: 
                l(1) =   0
                l(2) =   0
                l(3) =   1
                l(4) =   1
                l(5) =   2
                l(6) =   2
     Q(r) pseudized with  8 coefficients,  rinner =    0.900   0.900   0.900
                                                       0.900   0.900

     atomic species   valence    mass     pseudopotential
        Si             4.00    28.08600     Si( 1.00)

     48 Sym. Ops., with inversion, found



   Cartesian axes

     site n.     atom                  positions (alat units)
         1           Si  tau(   1) = (   0.0000000   0.0000000   0.0000000  )
         2           Si  tau(   2) = (   0.2500000   0.2500000   0.2500000  )

     number of k points=   120

     Number of k-points >= 100: set verbosity='high' to print them.

     Dense  grid:     2837 G-vectors     FFT dimensions: (  20,  20,  20)

     Estimated max dynamical RAM per process >       0.33MB

     Estimated total allocated dynamical RAM >       1.32MB

     Check: negative/imaginary core charge=   -0.000006    0.000000

     The potential is recalculated from file :
     ./_ph0/silicon.10.346.save/charge-density.dat

     Starting wfc are    8 atomic wfcs

     Band Structure Calculation
     Davidson diagonalization with overlap

     ethr =  1.25E-10,  avg # of iterations = 11.7

     total cpu time spent up to now is        1.0 secs

     End of band structure calculation

     Number of k-points >= 100: set verbosity='high' to print the bands.

     highest occupied level (ev):     5.6641

     Writing output data file silicon.10.346.save

                                                                                

     bravais-lattice index     =            2
     lattice parameter (alat)  =      10.3460  a.u.
     unit-cell volume          =     276.8582 (a.u.)^3
     number of atoms/cell      =            2
     number of atomic types    =            1
     kinetic-energy cut-off    =      18.0000  Ry
     charge density cut-off    =      72.0000  Ry
     convergence threshold     =      1.0E-12
     beta                      =       0.7000
     number of iterations used =            4
     Exchange-correlation      = SLA  PW   PBE  PBE ( 1  4  3  4 0 0)


     celldm(1)=   10.34600  celldm(2)=    0.00000  celldm(3)=    0.00000
     celldm(4)=    0.00000  celldm(5)=    0.00000  celldm(6)=    0.00000

     crystal axes: (cart. coord. in units of alat)
               a(1) = ( -0.5000  0.0000  0.5000 )  
               a(2) = (  0.0000  0.5000  0.5000 )  
               a(3) = ( -0.5000  0.5000  0.0000 )  

     reciprocal axes: (cart. coord. in units 2 pi/alat)
               b(1) = ( -1.0000 -1.0000  1.0000 )  
               b(2) = (  1.0000  1.0000  1.0000 )  
               b(3) = ( -1.0000  1.0000 -1.0000 )  


     Atoms inside the unit cell: 

     Cartesian axes

     site n.  atom      mass           positions (alat units)
        1     Si  28.0860   tau(    1) = (    0.00000    0.00000    0.00000  )
        2     Si  28.0860   tau(    2) = (    0.25000    0.25000    0.25000  )

     Computing dynamical matrix for 
                    q = (  -0.2500000   0.2500000  -0.2500000 )

      6 Sym.Ops. (no q -> -q+G )


     G cutoff =  195.2170  (    710 G-vectors)     FFT grid: ( 20, 20, 20)
     number of k points=   120

     PseudoPot. # 1 for Si read from file:
     /home/max/quantum_espresso/qe-6.1/pseudo/si_pbe_v1.uspp.F.UPF.txt
     MD5 check sum: a056efeee980c13900f22a371efd63c1
     Pseudo is Ultrasoft + core correction, Zval =  4.0
     Generated by new atomic code, or converted to UPF format
     Using radial grid of  899 points,  6 beta functions with: 
                l(1) =   0
                l(2) =   0
                l(3) =   1
                l(4) =   1
                l(5) =   2
                l(6) =   2
     Q(r) pseudized with  8 coefficients,  rinner =    0.900   0.900   0.900
                                                       0.900   0.900

     Mode symmetry, C_3v (3m)   point group:


     Atomic displacements:
     There are   4 irreducible representations

     Representation     1      1 modes -A_1  L_1  To be done

     Representation     2      1 modes -A_1  L_1  To be done

     Representation     3      2 modes -E    L_3  To be done

     Representation     4      2 modes -E    L_3  To be done



     Alpha used in Ewald sum =   0.7000
     PHONON       :     5.44s CPU         5.94s WALL



     Representation #  1 mode #   1

     Self-consistent Calculation

      iter #   1 total cpu time :     6.2 secs   av.it.:   5.5
      thresh= 1.000E-02 alpha_mix =  0.700 |ddv_scf|^2 =  2.463E-03

      iter #   2 total cpu time :     6.5 secs   av.it.:   7.5
      thresh= 4.963E-03 alpha_mix =  0.700 |ddv_scf|^2 =  3.722E-02

      iter #   3 total cpu time :     6.7 secs   av.it.:   6.3
      thresh= 1.000E-02 alpha_mix =  0.700 |ddv_scf|^2 =  1.709E-06

      iter #   4 total cpu time :     7.2 secs   av.it.:   8.2
      thresh= 1.307E-04 alpha_mix =  0.700 |ddv_scf|^2 =  1.156E-07

      iter #   5 total cpu time :     7.5 secs   av.it.:   8.1
      thresh= 3.400E-05 alpha_mix =  0.700 |ddv_scf|^2 =  4.742E-09

      iter #   6 total cpu time :     7.8 secs   av.it.:   8.0
      thresh= 6.886E-06 alpha_mix =  0.700 |ddv_scf|^2 =  4.063E-09

      iter #   7 total cpu time :     8.0 secs   av.it.:   6.2
      thresh= 6.374E-06 alpha_mix =  0.700 |ddv_scf|^2 =  5.067E-10

      iter #   8 total cpu time :     8.3 secs   av.it.:   7.2
      thresh= 2.251E-06 alpha_mix =  0.700 |ddv_scf|^2 =  4.236E-12

      iter #   9 total cpu time :     8.6 secs   av.it.:   7.2
      thresh= 2.058E-07 alpha_mix =  0.700 |ddv_scf|^2 =  1.810E-13

     End of self-consistent calculation

     Convergence has been achieved 


     Representation #  2 mode #   2

     Self-consistent Calculation

      iter #   1 total cpu time :     8.8 secs   av.it.:   5.5
      thresh= 1.000E-02 alpha_mix =  0.700 |ddv_scf|^2 =  2.463E-03

      iter #   2 total cpu time :     9.3 secs   av.it.:   7.5
      thresh= 4.963E-03 alpha_mix =  0.700 |ddv_scf|^2 =  3.722E-02

      iter #   3 total cpu time :     9.5 secs   av.it.:   6.3
      thresh= 1.000E-02 alpha_mix =  0.700 |ddv_scf|^2 =  1.709E-06

      iter #   4 total cpu time :     9.8 secs   av.it.:   8.2
      thresh= 1.307E-04 alpha_mix =  0.700 |ddv_scf|^2 =  1.156E-07

      iter #   5 total cpu time :    10.1 secs   av.it.:   8.1
      thresh= 3.400E-05 alpha_mix =  0.700 |ddv_scf|^2 =  4.742E-09

      iter #   6 total cpu time :    10.4 secs   av.it.:   8.0
      thresh= 6.886E-06 alpha_mix =  0.700 |ddv_scf|^2 =  4.063E-09

      iter #   7 total cpu time :    10.7 secs   av.it.:   6.2
      thresh= 6.374E-06 alpha_mix =  0.700 |ddv_scf|^2 =  5.067E-10

      iter #   8 total cpu time :    11.0 secs   av.it.:   7.2
      thresh= 2.251E-06 alpha_mix =  0.700 |ddv_scf|^2 =  4.236E-12

      iter #   9 total cpu time :    11.4 secs   av.it.:   7.2
      thresh= 2.058E-07 alpha_mix =  0.700 |ddv_scf|^2 =  1.810E-13

     End of self-consistent calculation

     Convergence has been achieved 


     Representation #  3 modes #   3  4

     Self-consistent Calculation

      iter #   1 total cpu time :    11.9 secs   av.it.:   4.9
      thresh= 1.000E-02 alpha_mix =  0.700 |ddv_scf|^2 =  5.715E-07

      iter #   2 total cpu time :    12.5 secs   av.it.:   9.4
      thresh= 7.560E-05 alpha_mix =  0.700 |ddv_scf|^2 =  4.299E-08

      iter #   3 total cpu time :    13.4 secs   av.it.:   9.2
      thresh= 2.073E-05 alpha_mix =  0.700 |ddv_scf|^2 =  3.720E-09

      iter #   4 total cpu time :    14.0 secs   av.it.:   8.9
      thresh= 6.099E-06 alpha_mix =  0.700 |ddv_scf|^2 =  1.117E-11

      iter #   5 total cpu time :    14.6 secs   av.it.:   9.2
      thresh= 3.342E-07 alpha_mix =  0.700 |ddv_scf|^2 =  4.988E-13

     End of self-consistent calculation

     Convergence has been achieved 


     Representation #  4 modes #   5  6

     Self-consistent Calculation

      iter #   1 total cpu time :    15.3 secs   av.it.:   5.0
      thresh= 1.000E-02 alpha_mix =  0.700 |ddv_scf|^2 =  5.713E-07

      iter #   2 total cpu time :    15.9 secs   av.it.:   9.6
      thresh= 7.559E-05 alpha_mix =  0.700 |ddv_scf|^2 =  4.295E-08

      iter #   3 total cpu time :    16.6 secs   av.it.:   9.4
      thresh= 2.072E-05 alpha_mix =  0.700 |ddv_scf|^2 =  3.717E-09

      iter #   4 total cpu time :    17.4 secs   av.it.:   9.1
      thresh= 6.097E-06 alpha_mix =  0.700 |ddv_scf|^2 =  1.118E-11

      iter #   5 total cpu time :    18.1 secs   av.it.:   9.3
      thresh= 3.343E-07 alpha_mix =  0.700 |ddv_scf|^2 =  4.992E-13

     End of self-consistent calculation

     Convergence has been achieved 

     Number of q in the star =    8
     List of q in the star:
          1  -0.250000000   0.250000000  -0.250000000
          2   0.250000000  -0.250000000  -0.250000000
          3   0.250000000  -0.250000000   0.250000000
          4   0.250000000   0.250000000   0.250000000
          5  -0.250000000  -0.250000000  -0.250000000
          6  -0.250000000  -0.250000000   0.250000000
          7  -0.250000000   0.250000000   0.250000000
          8   0.250000000   0.250000000  -0.250000000

     Diagonalizing the dynamical matrix

     q = (   -0.250000000   0.250000000  -0.250000000 ) 

 **************************************************************************
     freq (    1) =       3.398371 [THz] =     113.357455 [cm-1]
     freq (    2) =       3.398371 [THz] =     113.357455 [cm-1]
     freq (    3) =       6.916563 [THz] =     230.711696 [cm-1]
     freq (    4) =      14.412900 [THz] =     480.762580 [cm-1]
     freq (    5) =      14.720618 [THz] =     491.026974 [cm-1]
     freq (    6) =      14.720618 [THz] =     491.026974 [cm-1]
 **************************************************************************

     Mode symmetry, C_3v (3m)   point group:

     freq (  1 -  2) =        113.4  [cm-1]   --> E    L_3           
     freq (  3 -  3) =        230.7  [cm-1]   --> A_1  L_1           
     freq (  4 -  4) =        480.8  [cm-1]   --> A_1  L_1           
     freq (  5 -  6) =        491.0  [cm-1]   --> E    L_3           

     Calculation of q =    0.5000000  -0.5000000   0.5000000

   Info: using nr1, nr2, nr3 values from input

   Info: using nr1, nr2, nr3 values from input

     Parallelization info
     --------------------
     sticks:   dense  smooth     PW     G-vecs:    dense   smooth      PW
     Min          64      64     27                  709      709     186
     Max          67      67     28                  710      710     189
     Sum         265     265    109                 2837     2837     749



     bravais-lattice index     =            2
     lattice parameter (alat)  =      10.3460  a.u.
     unit-cell volume          =     276.8582 (a.u.)^3
     number of atoms/cell      =            2
     number of atomic types    =            1
     number of electrons       =         8.00
     number of Kohn-Sham states=            4
     kinetic-energy cutoff     =      18.0000  Ry
     charge density cutoff     =      72.0000  Ry
     Exchange-correlation      = SLA  PW   PBE  PBE ( 1  4  3  4 0 0)

     celldm(1)=  10.346000  celldm(2)=   0.000000  celldm(3)=   0.000000
     celldm(4)=   0.000000  celldm(5)=   0.000000  celldm(6)=   0.000000

     crystal axes: (cart. coord. in units of alat)
               a(1) = (  -0.500000   0.000000   0.500000 )  
               a(2) = (   0.000000   0.500000   0.500000 )  
               a(3) = (  -0.500000   0.500000   0.000000 )  

     reciprocal axes: (cart. coord. in units 2 pi/alat)
               b(1) = ( -1.000000 -1.000000  1.000000 )  
               b(2) = (  1.000000  1.000000  1.000000 )  
               b(3) = ( -1.000000  1.000000 -1.000000 )  


     PseudoPot. # 1 for Si read from file:
     /home/max/quantum_espresso/qe-6.1/pseudo/si_pbe_v1.uspp.F.UPF.txt
     MD5 check sum: a056efeee980c13900f22a371efd63c1
     Pseudo is Ultrasoft + core correction, Zval =  4.0
     Generated by new atomic code, or converted to UPF format
     Using radial grid of  899 points,  6 beta functions with: 
                l(1) =   0
                l(2) =   0
                l(3) =   1
                l(4) =   1
                l(5) =   2
                l(6) =   2
     Q(r) pseudized with  8 coefficients,  rinner =    0.900   0.900   0.900
                                                       0.900   0.900

     atomic species   valence    mass     pseudopotential
        Si             4.00    28.08600     Si( 1.00)

     48 Sym. Ops., with inversion, found



   Cartesian axes

     site n.     atom                  positions (alat units)
         1           Si  tau(   1) = (   0.0000000   0.0000000   0.0000000  )
         2           Si  tau(   2) = (   0.2500000   0.2500000   0.2500000  )

     number of k points=    60
                       cart. coord. in units 2pi/alat
        k(    1) = (  -0.1250000   0.1250000   0.1250000), wk =   0.0468750
        k(    2) = (   0.3750000  -0.3750000   0.6250000), wk =   0.0000000
        k(    3) = (  -0.3750000   0.3750000  -0.1250000), wk =   0.0468750
        k(    4) = (   0.1250000  -0.1250000   0.3750000), wk =   0.0000000
        k(    5) = (   0.3750000  -0.3750000   0.6250000), wk =   0.0468750
        k(    6) = (   0.8750000  -0.8750000   1.1250000), wk =   0.0000000
        k(    7) = (   0.1250000  -0.1250000   0.3750000), wk =   0.0468750
        k(    8) = (   0.6250000  -0.6250000   0.8750000), wk =   0.0000000
        k(    9) = (  -0.1250000   0.6250000   0.1250000), wk =   0.0937500
        k(   10) = (   0.3750000   0.1250000   0.6250000), wk =   0.0000000
        k(   11) = (   0.6250000  -0.1250000   0.8750000), wk =   0.0937500
        k(   12) = (   1.1250000  -0.6250000   1.3750000), wk =   0.0000000
        k(   13) = (   0.3750000   0.1250000   0.6250000), wk =   0.0937500
        k(   14) = (   0.8750000  -0.3750000   1.1250000), wk =   0.0000000
        k(   15) = (  -0.1250000  -0.8750000   0.1250000), wk =   0.0937500
        k(   16) = (   0.3750000  -1.3750000   0.6250000), wk =   0.0000000
        k(   17) = (  -0.3750000   0.3750000   0.3750000), wk =   0.0468750
        k(   18) = (   0.1250000  -0.1250000   0.8750000), wk =   0.0000000
        k(   19) = (   0.3750000  -0.3750000   1.1250000), wk =   0.0468750
        k(   20) = (   0.8750000  -0.8750000   1.6250000), wk =   0.0000000
        k(   21) = (   0.1250000  -0.1250000   0.1250000), wk =   0.0156250
        k(   22) = (   0.6250000  -0.6250000   0.6250000), wk =   0.0000000
        k(   23) = (  -0.3750000  -0.3750000  -0.1250000), wk =   0.0937500
        k(   24) = (   0.1250000  -0.8750000   0.3750000), wk =   0.0000000
        k(   25) = (  -0.1250000  -0.3750000   0.3750000), wk =   0.0468750
        k(   26) = (   0.3750000  -0.8750000   0.8750000), wk =   0.0000000
        k(   27) = (   0.3750000   0.3750000   0.6250000), wk =   0.0937500
        k(   28) = (   0.8750000  -0.1250000   1.1250000), wk =   0.0000000
        k(   29) = (   0.6250000   0.3750000  -0.3750000), wk =   0.0468750
        k(   30) = (   1.1250000  -0.1250000   0.1250000), wk =   0.0000000
        k(   31) = (   0.1250000   0.1250000   0.3750000), wk =   0.0937500
        k(   32) = (   0.6250000  -0.3750000   0.8750000), wk =   0.0000000
        k(   33) = (   0.3750000   0.1250000  -0.1250000), wk =   0.0468750
        k(   34) = (   0.8750000  -0.3750000   0.3750000), wk =   0.0000000
        k(   35) = (  -0.1250000  -0.6250000  -0.1250000), wk =   0.0468750
        k(   36) = (   0.3750000  -1.1250000   0.3750000), wk =   0.0000000
        k(   37) = (   0.1250000  -0.6250000   0.1250000), wk =   0.0468750
        k(   38) = (   0.6250000  -1.1250000   0.6250000), wk =   0.0000000
        k(   39) = (   0.6250000   0.1250000   0.8750000), wk =   0.0937500
        k(   40) = (   1.1250000  -0.3750000   1.3750000), wk =   0.0000000
        k(   41) = (  -0.8750000   0.1250000   0.6250000), wk =   0.0937500
        k(   42) = (  -0.3750000  -0.3750000   1.1250000), wk =   0.0000000
        k(   43) = (   0.8750000   0.1250000  -0.6250000), wk =   0.0937500
        k(   44) = (   1.3750000  -0.3750000  -0.1250000), wk =   0.0000000
        k(   45) = (   0.3750000  -0.1250000   0.6250000), wk =   0.0937500
        k(   46) = (   0.8750000  -0.6250000   1.1250000), wk =   0.0000000
        k(   47) = (  -0.6250000  -0.1250000   0.3750000), wk =   0.0937500
        k(   48) = (  -0.1250000  -0.6250000   0.8750000), wk =   0.0000000
        k(   49) = (   0.6250000  -0.1250000  -0.3750000), wk =   0.0937500
        k(   50) = (   1.1250000  -0.6250000   0.1250000), wk =   0.0000000
        k(   51) = (  -0.1250000   0.8750000  -0.1250000), wk =   0.0468750
        k(   52) = (   0.3750000   0.3750000   0.3750000), wk =   0.0000000
        k(   53) = (   0.1250000   0.8750000   0.1250000), wk =   0.0468750
        k(   54) = (   0.6250000   0.3750000   0.6250000), wk =   0.0000000
        k(   55) = (   0.3750000  -0.3750000   0.3750000), wk =   0.0156250
        k(   56) = (   0.8750000  -0.8750000   0.8750000), wk =   0.0000000
        k(   57) = (   0.3750000   0.3750000   1.1250000), wk =   0.0937500
        k(   58) = (   0.8750000  -0.1250000   1.6250000), wk =   0.0000000
        k(   59) = (   1.1250000   0.3750000  -0.3750000), wk =   0.0468750
        k(   60) = (   1.6250000  -0.1250000   0.1250000), wk =   0.0000000

     Dense  grid:     2837 G-vectors     FFT dimensions: (  20,  20,  20)

     Estimated max dynamical RAM per process >       0.33MB

     Estimated total allocated dynamical RAM >       1.32MB

     Check: negative/imaginary core charge=   -0.000006    0.000000

     The potential is recalculated from file :
     ./_ph0/silicon.10.346.save/charge-density.dat

     Starting wfc are    8 atomic wfcs

     Band Structure Calculation
     Davidson diagonalization with overlap

     ethr =  1.25E-10,  avg # of iterations = 11.7

     total cpu time spent up to now is        1.7 secs

     End of band structure calculation

          k =-0.1250 0.1250 0.1250 (   344 PWs)   bands (ev):

    -5.6437   4.3550   5.6641   5.6641

          k = 0.3750-0.3750 0.6250 (   361 PWs)   bands (ev):

    -3.4926  -0.6955   3.7062   4.4163

          k =-0.3750 0.3750-0.1250 (   355 PWs)   bands (ev):

    -4.6230   1.3689   3.6893   5.1831

          k = 0.1250-0.1250 0.3750 (   353 PWs)   bands (ev):

    -5.1188   2.7386   4.6612   4.7227

          k = 0.3750-0.3750 0.6250 (   361 PWs)   bands (ev):

    -3.4926  -0.6955   3.7062   4.4163

          k = 0.8750-0.8750 1.1250 (   344 PWs)   bands (ev):

    -5.6437   4.3550   5.6641   5.6641

          k = 0.1250-0.1250 0.3750 (   353 PWs)   bands (ev):

    -5.1188   2.7386   4.6612   4.7227

          k = 0.6250-0.6250 0.8750 (   355 PWs)   bands (ev):

    -4.6230   1.3689   3.6893   5.1831

          k =-0.1250 0.6250 0.1250 (   351 PWs)   bands (ev):

    -4.0929   1.0277   3.3443   3.7910

          k = 0.3750 0.1250 0.6250 (   360 PWs)   bands (ev):

    -3.6809   0.1629   2.7057   4.0655

          k = 0.6250-0.1250 0.8750 (   361 PWs)   bands (ev):

    -2.4639  -0.9278   2.0024   3.0695

          k = 1.1250-0.6250 1.3750 (   355 PWs)   bands (ev):

    -4.6230   1.3689   3.6893   5.1831

          k = 0.3750 0.1250 0.6250 (   360 PWs)   bands (ev):

    -3.6809   0.1629   2.7057   4.0655

          k = 0.8750-0.3750 1.1250 (   351 PWs)   bands (ev):

    -4.0929   1.0277   3.3443   3.7910

          k =-0.1250-0.8750 0.1250 (   360 PWs)   bands (ev):

    -2.6290  -0.8315   2.6059   3.3259

          k = 0.3750-1.3750 0.6250 (   361 PWs)   bands (ev):

    -3.4926  -0.6955   3.7062   4.4163

          k =-0.3750 0.3750 0.3750 (   353 PWs)   bands (ev):

    -4.1937   0.0893   4.8780   4.8780

          k = 0.1250-0.1250 0.8750 (   360 PWs)   bands (ev):

    -2.6290  -0.8315   2.6059   3.3259

          k = 0.3750-0.3750 1.1250 (   363 PWs)   bands (ev):

    -2.9993  -0.6198   2.0577   4.1019

          k = 0.8750-0.8750 1.6250 (   351 PWs)   bands (ev):

    -4.0929   1.0277   3.3443   3.7910

          k = 0.1250-0.1250 0.1250 (   344 PWs)   bands (ev):

    -5.6437   4.3550   5.6641   5.6641

          k = 0.6250-0.6250 0.6250 (   353 PWs)   bands (ev):

    -4.1937   0.0893   4.8780   4.8780

          k =-0.3750-0.3750-0.1250 (   355 PWs)   bands (ev):

    -4.6230   1.3689   3.6893   5.1831

          k = 0.1250-0.8750 0.3750 (   361 PWs)   bands (ev):

    -2.4639  -0.9278   2.0024   3.0695

          k =-0.1250-0.3750 0.3750 (   355 PWs)   bands (ev):

    -4.6230   1.3689   3.6893   5.1831

          k = 0.3750-0.8750 0.8750 (   351 PWs)   bands (ev):

    -4.0929   1.0277   3.3443   3.7910

          k = 0.3750 0.3750 0.6250 (   361 PWs)   bands (ev):

    -3.4926  -0.6955   3.7062   4.4163

          k = 0.8750-0.1250 1.1250 (   360 PWs)   bands (ev):

    -2.6290  -0.8315   2.6059   3.3259

          k = 0.6250 0.3750-0.3750 (   361 PWs)   bands (ev):

    -3.4926  -0.6955   3.7062   4.4163

          k = 1.1250-0.1250 0.1250 (   360 PWs)   bands (ev):

    -2.6290  -0.8315   2.6059   3.3259

          k = 0.1250 0.1250 0.3750 (   353 PWs)   bands (ev):

    -5.1188   2.7386   4.6612   4.7227

          k = 0.6250-0.3750 0.8750 (   360 PWs)   bands (ev):

    -3.6809   0.1629   2.7057   4.0655

          k = 0.3750 0.1250-0.1250 (   353 PWs)   bands (ev):

    -5.1188   2.7386   4.6612   4.7227

          k = 0.8750-0.3750 0.3750 (   363 PWs)   bands (ev):

    -2.9993  -0.6198   2.0577   4.1019

          k =-0.1250-0.6250-0.1250 (   351 PWs)   bands (ev):

    -4.0929   1.0277   3.3443   3.7910

          k = 0.3750-1.1250 0.3750 (   363 PWs)   bands (ev):

    -2.9993  -0.6198   2.0577   4.1019

          k = 0.1250-0.6250 0.1250 (   351 PWs)   bands (ev):

    -4.0929   1.0277   3.3443   3.7910

          k = 0.6250-1.1250 0.6250 (   355 PWs)   bands (ev):

    -4.6230   1.3689   3.6893   5.1831

          k = 0.6250 0.1250 0.8750 (   361 PWs)   bands (ev):

    -2.4639  -0.9278   2.0024   3.0695

          k = 1.1250-0.3750 1.3750 (   360 PWs)   bands (ev):

    -3.6809   0.1629   2.7057   4.0655

          k =-0.8750 0.1250 0.6250 (   361 PWs)   bands (ev):

    -2.4639  -0.9278   2.0024   3.0695

          k =-0.3750-0.3750 1.1250 (   363 PWs)   bands (ev):

    -2.9993  -0.6198   2.0577   4.1019

          k = 0.8750 0.1250-0.6250 (   361 PWs)   bands (ev):

    -2.4639  -0.9278   2.0024   3.0695

          k = 1.3750-0.3750-0.1250 (   360 PWs)   bands (ev):

    -3.6809   0.1629   2.7057   4.0655

          k = 0.3750-0.1250 0.6250 (   360 PWs)   bands (ev):

    -3.6809   0.1629   2.7057   4.0655

          k = 0.8750-0.6250 1.1250 (   353 PWs)   bands (ev):

    -5.1188   2.7386   4.6612   4.7227

          k =-0.6250-0.1250 0.3750 (   360 PWs)   bands (ev):

    -3.6809   0.1629   2.7057   4.0655

          k =-0.1250-0.6250 0.8750 (   361 PWs)   bands (ev):

    -2.4639  -0.9278   2.0024   3.0695

          k = 0.6250-0.1250-0.3750 (   360 PWs)   bands (ev):

    -3.6809   0.1629   2.7057   4.0655

          k = 1.1250-0.6250 0.1250 (   361 PWs)   bands (ev):

    -2.4639  -0.9278   2.0024   3.0695

          k =-0.1250 0.8750-0.1250 (   360 PWs)   bands (ev):

    -2.6290  -0.8315   2.6059   3.3259

          k = 0.3750 0.3750 0.3750 (   353 PWs)   bands (ev):

    -4.1937   0.0893   4.8780   4.8780

          k = 0.1250 0.8750 0.1250 (   360 PWs)   bands (ev):

    -2.6290  -0.8315   2.6059   3.3259

          k = 0.6250 0.3750 0.6250 (   361 PWs)   bands (ev):

    -3.4926  -0.6955   3.7062   4.4163

          k = 0.3750-0.3750 0.3750 (   353 PWs)   bands (ev):

    -4.1937   0.0893   4.8780   4.8780

          k = 0.8750-0.8750 0.8750 (   344 PWs)   bands (ev):

    -5.6437   4.3550   5.6641   5.6641

          k = 0.3750 0.3750 1.1250 (   363 PWs)   bands (ev):

    -2.9993  -0.6198   2.0577   4.1019

          k = 0.8750-0.1250 1.6250 (   361 PWs)   bands (ev):

    -2.4639  -0.9278   2.0024   3.0695

          k = 1.1250 0.3750-0.3750 (   363 PWs)   bands (ev):

    -2.9993  -0.6198   2.0577   4.1019

          k = 1.6250-0.1250 0.1250 (   353 PWs)   bands (ev):

    -5.1188   2.7386   4.6612   4.7227

     highest occupied level (ev):     5.6641

     Writing output data file silicon.10.346.save

                                                                                

     bravais-lattice index     =            2
     lattice parameter (alat)  =      10.3460  a.u.
     unit-cell volume          =     276.8582 (a.u.)^3
     number of atoms/cell      =            2
     number of atomic types    =            1
     kinetic-energy cut-off    =      18.0000  Ry
     charge density cut-off    =      72.0000  Ry
     convergence threshold     =      1.0E-12
     beta                      =       0.7000
     number of iterations used =            4
     Exchange-correlation      = SLA  PW   PBE  PBE ( 1  4  3  4 0 0)


     celldm(1)=   10.34600  celldm(2)=    0.00000  celldm(3)=    0.00000
     celldm(4)=    0.00000  celldm(5)=    0.00000  celldm(6)=    0.00000

     crystal axes: (cart. coord. in units of alat)
               a(1) = ( -0.5000  0.0000  0.5000 )  
               a(2) = (  0.0000  0.5000  0.5000 )  
               a(3) = ( -0.5000  0.5000  0.0000 )  

     reciprocal axes: (cart. coord. in units 2 pi/alat)
               b(1) = ( -1.0000 -1.0000  1.0000 )  
               b(2) = (  1.0000  1.0000  1.0000 )  
               b(3) = ( -1.0000  1.0000 -1.0000 )  


     Atoms inside the unit cell: 

     Cartesian axes

     site n.  atom      mass           positions (alat units)
        1     Si  28.0860   tau(    1) = (    0.00000    0.00000    0.00000  )
        2     Si  28.0860   tau(    2) = (    0.25000    0.25000    0.25000  )

     Computing dynamical matrix for 
                    q = (   0.5000000  -0.5000000   0.5000000 )

     13 Sym.Ops. (with q -> -q+G )


     G cutoff =  195.2170  (    710 G-vectors)     FFT grid: ( 20, 20, 20)
     number of k points=    60

     PseudoPot. # 1 for Si read from file:
     /home/max/quantum_espresso/qe-6.1/pseudo/si_pbe_v1.uspp.F.UPF.txt
     MD5 check sum: a056efeee980c13900f22a371efd63c1
     Pseudo is Ultrasoft + core correction, Zval =  4.0
     Generated by new atomic code, or converted to UPF format
     Using radial grid of  899 points,  6 beta functions with: 
                l(1) =   0
                l(2) =   0
                l(3) =   1
                l(4) =   1
                l(5) =   2
                l(6) =   2
     Q(r) pseudized with  8 coefficients,  rinner =    0.900   0.900   0.900
                                                       0.900   0.900


     Atomic displacements:
     There are   4 irreducible representations

     Representation     1      1 modes -  To be done

     Representation     2      1 modes -  To be done

     Representation     3      2 modes -  To be done

     Representation     4      2 modes -  To be done



     Alpha used in Ewald sum =   0.7000
     PHONON       :    17.22s CPU        18.89s WALL



     Representation #  1 mode #   1

     Self-consistent Calculation

      iter #   1 total cpu time :    19.1 secs   av.it.:   4.8
      thresh= 1.000E-02 alpha_mix =  0.700 |ddv_scf|^2 =  2.483E-05

      iter #   2 total cpu time :    19.4 secs   av.it.:   8.3
      thresh= 4.983E-04 alpha_mix =  0.700 |ddv_scf|^2 =  2.215E-05

      iter #   3 total cpu time :    19.5 secs   av.it.:   7.5
      thresh= 4.706E-04 alpha_mix =  0.700 |ddv_scf|^2 =  4.366E-08

      iter #   4 total cpu time :    19.7 secs   av.it.:   7.4
      thresh= 2.090E-05 alpha_mix =  0.700 |ddv_scf|^2 =  1.354E-10

      iter #   5 total cpu time :    19.8 secs   av.it.:   8.0
      thresh= 1.164E-06 alpha_mix =  0.700 |ddv_scf|^2 =  3.540E-12

      iter #   6 total cpu time :    20.0 secs   av.it.:   7.9
      thresh= 1.882E-07 alpha_mix =  0.700 |ddv_scf|^2 =  4.294E-14

     End of self-consistent calculation

     Convergence has been achieved 


     Representation #  2 mode #   2

     Self-consistent Calculation

      iter #   1 total cpu time :    20.1 secs   av.it.:   5.6
      thresh= 1.000E-02 alpha_mix =  0.700 |ddv_scf|^2 =  3.447E-04

      iter #   2 total cpu time :    20.3 secs   av.it.:   8.3
      thresh= 1.857E-03 alpha_mix =  0.700 |ddv_scf|^2 =  1.063E-03

      iter #   3 total cpu time :    20.5 secs   av.it.:   7.1
      thresh= 3.260E-03 alpha_mix =  0.700 |ddv_scf|^2 =  1.311E-07

      iter #   4 total cpu time :    20.6 secs   av.it.:   8.2
      thresh= 3.621E-05 alpha_mix =  0.700 |ddv_scf|^2 =  8.482E-09

      iter #   5 total cpu time :    20.8 secs   av.it.:   8.5
      thresh= 9.210E-06 alpha_mix =  0.700 |ddv_scf|^2 =  1.349E-10

      iter #   6 total cpu time :    21.0 secs   av.it.:   8.2
      thresh= 1.162E-06 alpha_mix =  0.700 |ddv_scf|^2 =  2.514E-12

      iter #   7 total cpu time :    21.3 secs   av.it.:   7.9
      thresh= 1.586E-07 alpha_mix =  0.700 |ddv_scf|^2 =  4.954E-15

     End of self-consistent calculation

     Convergence has been achieved 


     Representation #  3 modes #   3  4

     Self-consistent Calculation

      iter #   1 total cpu time :    21.6 secs   av.it.:   4.7
      thresh= 1.000E-02 alpha_mix =  0.700 |ddv_scf|^2 =  3.330E-07

      iter #   2 total cpu time :    21.9 secs   av.it.:   9.1
      thresh= 5.770E-05 alpha_mix =  0.700 |ddv_scf|^2 =  2.822E-08

      iter #   3 total cpu time :    22.3 secs   av.it.:   8.4
      thresh= 1.680E-05 alpha_mix =  0.700 |ddv_scf|^2 =  5.010E-10

      iter #   4 total cpu time :    22.6 secs   av.it.:   8.9
      thresh= 2.238E-06 alpha_mix =  0.700 |ddv_scf|^2 =  6.208E-12

      iter #   5 total cpu time :    22.9 secs   av.it.:   8.7
      thresh= 2.492E-07 alpha_mix =  0.700 |ddv_scf|^2 =  3.114E-14

     End of self-consistent calculation

     Convergence has been achieved 


     Representation #  4 modes #   5  6

     Self-consistent Calculation

      iter #   1 total cpu time :    23.4 secs   av.it.:   4.9
      thresh= 1.000E-02 alpha_mix =  0.700 |ddv_scf|^2 =  9.862E-07

      iter #   2 total cpu time :    23.8 secs   av.it.:   9.5
      thresh= 9.931E-05 alpha_mix =  0.700 |ddv_scf|^2 =  7.749E-08

      iter #   3 total cpu time :    24.1 secs   av.it.:   9.3
      thresh= 2.784E-05 alpha_mix =  0.700 |ddv_scf|^2 =  5.026E-09

      iter #   4 total cpu time :    24.4 secs   av.it.:   8.5
      thresh= 7.089E-06 alpha_mix =  0.700 |ddv_scf|^2 =  6.458E-12

      iter #   5 total cpu time :    24.8 secs   av.it.:   8.9
      thresh= 2.541E-07 alpha_mix =  0.700 |ddv_scf|^2 =  2.327E-14

     End of self-consistent calculation

     Convergence has been achieved 

     Number of q in the star =    4
     List of q in the star:
          1   0.500000000  -0.500000000   0.500000000
          2   0.500000000   0.500000000   0.500000000
          3  -0.500000000   0.500000000   0.500000000
          4   0.500000000   0.500000000  -0.500000000

     Diagonalizing the dynamical matrix

     q = (    0.500000000  -0.500000000   0.500000000 ) 

 **************************************************************************
     freq (    1) =       4.788489 [THz] =     159.726808 [cm-1]
     freq (    2) =       4.788489 [THz] =     159.726808 [cm-1]
     freq (    3) =      11.808609 [THz] =     393.892812 [cm-1]
     freq (    4) =      12.114145 [THz] =     404.084366 [cm-1]
     freq (    5) =      14.645643 [THz] =     488.526073 [cm-1]
     freq (    6) =      14.645643 [THz] =     488.526073 [cm-1]
 **************************************************************************

     Calculation of q =    0.0000000   0.5000000   0.0000000

   Info: using nr1, nr2, nr3 values from input

   Info: using nr1, nr2, nr3 values from input

     Parallelization info
     --------------------
     sticks:   dense  smooth     PW     G-vecs:    dense   smooth      PW
     Min          64      64     27                  709      709     175
     Max          67      67     28                  710      710     176
     Sum         265     265    109                 2837     2837     701



     bravais-lattice index     =            2
     lattice parameter (alat)  =      10.3460  a.u.
     unit-cell volume          =     276.8582 (a.u.)^3
     number of atoms/cell      =            2
     number of atomic types    =            1
     number of electrons       =         8.00
     number of Kohn-Sham states=            4
     kinetic-energy cutoff     =      18.0000  Ry
     charge density cutoff     =      72.0000  Ry
     Exchange-correlation      = SLA  PW   PBE  PBE ( 1  4  3  4 0 0)

     celldm(1)=  10.346000  celldm(2)=   0.000000  celldm(3)=   0.000000
     celldm(4)=   0.000000  celldm(5)=   0.000000  celldm(6)=   0.000000

     crystal axes: (cart. coord. in units of alat)
               a(1) = (  -0.500000   0.000000   0.500000 )  
               a(2) = (   0.000000   0.500000   0.500000 )  
               a(3) = (  -0.500000   0.500000   0.000000 )  

     reciprocal axes: (cart. coord. in units 2 pi/alat)
               b(1) = ( -1.000000 -1.000000  1.000000 )  
               b(2) = (  1.000000  1.000000  1.000000 )  
               b(3) = ( -1.000000  1.000000 -1.000000 )  


     PseudoPot. # 1 for Si read from file:
     /home/max/quantum_espresso/qe-6.1/pseudo/si_pbe_v1.uspp.F.UPF.txt
     MD5 check sum: a056efeee980c13900f22a371efd63c1
     Pseudo is Ultrasoft + core correction, Zval =  4.0
     Generated by new atomic code, or converted to UPF format
     Using radial grid of  899 points,  6 beta functions with: 
                l(1) =   0
                l(2) =   0
                l(3) =   1
                l(4) =   1
                l(5) =   2
                l(6) =   2
     Q(r) pseudized with  8 coefficients,  rinner =    0.900   0.900   0.900
                                                       0.900   0.900

     atomic species   valence    mass     pseudopotential
        Si             4.00    28.08600     Si( 1.00)

     48 Sym. Ops., with inversion, found



   Cartesian axes

     site n.     atom                  positions (alat units)
         1           Si  tau(   1) = (   0.0000000   0.0000000   0.0000000  )
         2           Si  tau(   2) = (   0.2500000   0.2500000   0.2500000  )

     number of k points=    80
                       cart. coord. in units 2pi/alat
        k(    1) = (  -0.1250000   0.1250000   0.1250000), wk =   0.0312500
        k(    2) = (  -0.1250000   0.6250000   0.1250000), wk =   0.0000000
        k(    3) = (  -0.3750000   0.3750000  -0.1250000), wk =   0.0625000
        k(    4) = (  -0.3750000   0.8750000  -0.1250000), wk =   0.0000000
        k(    5) = (   0.3750000  -0.3750000   0.6250000), wk =   0.0625000
        k(    6) = (   0.3750000   0.1250000   0.6250000), wk =   0.0000000
        k(    7) = (   0.1250000  -0.1250000   0.3750000), wk =   0.0625000
        k(    8) = (   0.1250000   0.3750000   0.3750000), wk =   0.0000000
        k(    9) = (  -0.1250000   0.6250000   0.1250000), wk =   0.0312500
        k(   10) = (  -0.1250000   1.1250000   0.1250000), wk =   0.0000000
        k(   11) = (   0.6250000  -0.1250000   0.8750000), wk =   0.0625000
        k(   12) = (   0.6250000   0.3750000   0.8750000), wk =   0.0000000
        k(   13) = (   0.3750000   0.1250000   0.6250000), wk =   0.0625000
        k(   14) = (   0.3750000   0.6250000   0.6250000), wk =   0.0000000
        k(   15) = (  -0.1250000  -0.8750000   0.1250000), wk =   0.0312500
        k(   16) = (  -0.1250000  -0.3750000   0.1250000), wk =   0.0000000
        k(   17) = (  -0.3750000   0.3750000   0.3750000), wk =   0.0312500
        k(   18) = (  -0.3750000   0.8750000   0.3750000), wk =   0.0000000
        k(   19) = (   0.3750000  -0.3750000   1.1250000), wk =   0.0625000
        k(   20) = (   0.3750000   0.1250000   1.1250000), wk =   0.0000000
        k(   21) = (  -0.1250000  -0.1250000   0.1250000), wk =   0.0312500
        k(   22) = (  -0.1250000   0.3750000   0.1250000), wk =   0.0000000
        k(   23) = (   0.1250000  -0.3750000   0.3750000), wk =   0.0625000
        k(   24) = (   0.1250000   0.1250000   0.3750000), wk =   0.0000000
        k(   25) = (   0.3750000  -0.1250000   0.3750000), wk =   0.0312500
        k(   26) = (   0.3750000   0.3750000   0.3750000), wk =   0.0000000
        k(   27) = (   0.3750000   0.1250000   0.3750000), wk =   0.0312500
        k(   28) = (   0.3750000   0.6250000   0.3750000), wk =   0.0000000
        k(   29) = (  -0.6250000   0.3750000  -0.3750000), wk =   0.0625000
        k(   30) = (  -0.6250000   0.8750000  -0.3750000), wk =   0.0000000
        k(   31) = (  -0.3750000   0.6250000  -0.3750000), wk =   0.0312500
        k(   32) = (  -0.3750000   1.1250000  -0.3750000), wk =   0.0000000
        k(   33) = (  -0.3750000  -0.6250000  -0.3750000), wk =   0.0312500
        k(   34) = (  -0.3750000  -0.1250000  -0.3750000), wk =   0.0000000
        k(   35) = (  -0.3750000   0.1250000  -0.1250000), wk =   0.0625000
        k(   36) = (  -0.3750000   0.6250000  -0.1250000), wk =   0.0000000
        k(   37) = (  -0.1250000   0.3750000  -0.1250000), wk =   0.0312500
        k(   38) = (  -0.1250000   0.8750000  -0.1250000), wk =   0.0000000
        k(   39) = (  -0.1250000  -0.3750000  -0.1250000), wk =   0.0312500
        k(   40) = (  -0.1250000   0.1250000  -0.1250000), wk =   0.0000000
        k(   41) = (  -0.1250000  -0.6250000   0.1250000), wk =   0.0312500
        k(   42) = (  -0.1250000  -0.1250000   0.1250000), wk =   0.0000000
        k(   43) = (   0.6250000  -0.1250000  -0.1250000), wk =   0.0625000
        k(   44) = (   0.6250000   0.3750000  -0.1250000), wk =   0.0000000
        k(   45) = (   0.6250000   0.1250000   0.1250000), wk =   0.0625000
        k(   46) = (   0.6250000   0.6250000   0.1250000), wk =   0.0000000
        k(   47) = (  -0.8750000   0.1250000  -0.6250000), wk =   0.0625000
        k(   48) = (  -0.8750000   0.6250000  -0.6250000), wk =   0.0000000
        k(   49) = (  -0.1250000   0.6250000  -0.8750000), wk =   0.0625000
        k(   50) = (  -0.1250000   1.1250000  -0.8750000), wk =   0.0000000
        k(   51) = (  -0.1250000   0.8750000  -0.6250000), wk =   0.0625000
        k(   52) = (  -0.1250000   1.3750000  -0.6250000), wk =   0.0000000
        k(   53) = (  -0.1250000  -0.8750000  -0.6250000), wk =   0.0625000
        k(   54) = (  -0.1250000  -0.3750000  -0.6250000), wk =   0.0000000
        k(   55) = (   0.8750000  -0.6250000   0.1250000), wk =   0.0625000
        k(   56) = (   0.8750000  -0.1250000   0.1250000), wk =   0.0000000
        k(   57) = (  -0.6250000  -0.1250000  -0.3750000), wk =   0.0625000
        k(   58) = (  -0.6250000   0.3750000  -0.3750000), wk =   0.0000000
        k(   59) = (   0.1250000   0.3750000  -0.6250000), wk =   0.0625000
        k(   60) = (   0.1250000   0.8750000  -0.6250000), wk =   0.0000000
        k(   61) = (   0.1250000   0.6250000  -0.3750000), wk =   0.0625000
        k(   62) = (   0.1250000   1.1250000  -0.3750000), wk =   0.0000000
        k(   63) = (   0.1250000  -0.6250000  -0.3750000), wk =   0.0625000
        k(   64) = (   0.1250000  -0.1250000  -0.3750000), wk =   0.0000000
        k(   65) = (   0.6250000  -0.3750000  -0.1250000), wk =   0.0625000
        k(   66) = (   0.6250000   0.1250000  -0.1250000), wk =   0.0000000
        k(   67) = (  -0.1250000   0.8750000   0.1250000), wk =   0.0312500
        k(   68) = (  -0.1250000   1.3750000   0.1250000), wk =   0.0000000
        k(   69) = (  -0.8750000  -0.1250000  -0.1250000), wk =   0.0625000
        k(   70) = (  -0.8750000   0.3750000  -0.1250000), wk =   0.0000000
        k(   71) = (  -0.8750000   0.1250000   0.1250000), wk =   0.0625000
        k(   72) = (  -0.8750000   0.6250000   0.1250000), wk =   0.0000000
        k(   73) = (  -0.3750000  -0.3750000   0.3750000), wk =   0.0312500
        k(   74) = (  -0.3750000   0.1250000   0.3750000), wk =   0.0000000
        k(   75) = (  -1.1250000   0.3750000  -0.3750000), wk =   0.0625000
        k(   76) = (  -1.1250000   0.8750000  -0.3750000), wk =   0.0000000
        k(   77) = (  -0.3750000   1.1250000  -0.3750000), wk =   0.0312500
        k(   78) = (  -0.3750000   1.6250000  -0.3750000), wk =   0.0000000
        k(   79) = (  -0.3750000  -1.1250000  -0.3750000), wk =   0.0312500
        k(   80) = (  -0.3750000  -0.6250000  -0.3750000), wk =   0.0000000

     Dense  grid:     2837 G-vectors     FFT dimensions: (  20,  20,  20)

     Estimated max dynamical RAM per process >       0.33MB

     Estimated total allocated dynamical RAM >       1.32MB

     Check: negative/imaginary core charge=   -0.000006    0.000000

     The potential is recalculated from file :
     ./_ph0/silicon.10.346.save/charge-density.dat

     Starting wfc are    8 atomic wfcs

     Band Structure Calculation
     Davidson diagonalization with overlap

     ethr =  1.25E-10,  avg # of iterations = 11.7

     total cpu time spent up to now is        2.5 secs

     End of band structure calculation

          k =-0.1250 0.1250 0.1250 (   344 PWs)   bands (ev):

    -5.6437   4.3550   5.6641   5.6641

          k =-0.1250 0.6250 0.1250 (   351 PWs)   bands (ev):

    -4.0929   1.0277   3.3443   3.7910

          k =-0.3750 0.3750-0.1250 (   355 PWs)   bands (ev):

    -4.6230   1.3689   3.6893   5.1831

          k =-0.3750 0.8750-0.1250 (   361 PWs)   bands (ev):

    -2.4639  -0.9278   2.0024   3.0695

          k = 0.3750-0.3750 0.6250 (   361 PWs)   bands (ev):

    -3.4926  -0.6955   3.7062   4.4163

          k = 0.3750 0.1250 0.6250 (   360 PWs)   bands (ev):

    -3.6809   0.1629   2.7057   4.0655

          k = 0.1250-0.1250 0.3750 (   353 PWs)   bands (ev):

    -5.1188   2.7386   4.6612   4.7227

          k = 0.1250 0.3750 0.3750 (   355 PWs)   bands (ev):

    -4.6230   1.3689   3.6893   5.1831

          k =-0.1250 0.6250 0.1250 (   351 PWs)   bands (ev):

    -4.0929   1.0277   3.3443   3.7910

          k =-0.1250 1.1250 0.1250 (   360 PWs)   bands (ev):

    -2.6290  -0.8315   2.6059   3.3259

          k = 0.6250-0.1250 0.8750 (   361 PWs)   bands (ev):

    -2.4639  -0.9278   2.0024   3.0695

          k = 0.6250 0.3750 0.8750 (   360 PWs)   bands (ev):

    -3.6809   0.1629   2.7057   4.0655

          k = 0.3750 0.1250 0.6250 (   360 PWs)   bands (ev):

    -3.6809   0.1629   2.7057   4.0655

          k = 0.3750 0.6250 0.6250 (   361 PWs)   bands (ev):

    -3.4926  -0.6955   3.7062   4.4163

          k =-0.1250-0.8750 0.1250 (   360 PWs)   bands (ev):

    -2.6290  -0.8315   2.6059   3.3259

          k =-0.1250-0.3750 0.1250 (   353 PWs)   bands (ev):

    -5.1188   2.7386   4.6612   4.7227

          k =-0.3750 0.3750 0.3750 (   353 PWs)   bands (ev):

    -4.1937   0.0893   4.8780   4.8780

          k =-0.3750 0.8750 0.3750 (   363 PWs)   bands (ev):

    -2.9993  -0.6198   2.0577   4.1019

          k = 0.3750-0.3750 1.1250 (   363 PWs)   bands (ev):

    -2.9993  -0.6198   2.0577   4.1019

          k = 0.3750 0.1250 1.1250 (   361 PWs)   bands (ev):

    -2.4639  -0.9278   2.0024   3.0695

          k =-0.1250-0.1250 0.1250 (   344 PWs)   bands (ev):

    -5.6437   4.3550   5.6641   5.6641

          k =-0.1250 0.3750 0.1250 (   353 PWs)   bands (ev):

    -5.1188   2.7386   4.6612   4.7227

          k = 0.1250-0.3750 0.3750 (   355 PWs)   bands (ev):

    -4.6230   1.3689   3.6893   5.1831

          k = 0.1250 0.1250 0.3750 (   353 PWs)   bands (ev):

    -5.1188   2.7386   4.6612   4.7227

          k = 0.3750-0.1250 0.3750 (   355 PWs)   bands (ev):

    -4.6230   1.3689   3.6893   5.1831

          k = 0.3750 0.3750 0.3750 (   353 PWs)   bands (ev):

    -4.1937   0.0893   4.8780   4.8780

          k = 0.3750 0.1250 0.3750 (   355 PWs)   bands (ev):

    -4.6230   1.3689   3.6893   5.1831

          k = 0.3750 0.6250 0.3750 (   361 PWs)   bands (ev):

    -3.4926  -0.6955   3.7062   4.4163

          k =-0.6250 0.3750-0.3750 (   361 PWs)   bands (ev):

    -3.4926  -0.6955   3.7062   4.4163

          k =-0.6250 0.8750-0.3750 (   360 PWs)   bands (ev):

    -3.6809   0.1629   2.7057   4.0655

          k =-0.3750 0.6250-0.3750 (   361 PWs)   bands (ev):

    -3.4926  -0.6955   3.7062   4.4163

          k =-0.3750 1.1250-0.3750 (   363 PWs)   bands (ev):

    -2.9993  -0.6198   2.0577   4.1019

          k =-0.3750-0.6250-0.3750 (   361 PWs)   bands (ev):

    -3.4926  -0.6955   3.7062   4.4163

          k =-0.3750-0.1250-0.3750 (   355 PWs)   bands (ev):

    -4.6230   1.3689   3.6893   5.1831

          k =-0.3750 0.1250-0.1250 (   353 PWs)   bands (ev):

    -5.1188   2.7386   4.6612   4.7227

          k =-0.3750 0.6250-0.1250 (   360 PWs)   bands (ev):

    -3.6809   0.1629   2.7057   4.0655

          k =-0.1250 0.3750-0.1250 (   353 PWs)   bands (ev):

    -5.1188   2.7386   4.6612   4.7227

          k =-0.1250 0.8750-0.1250 (   360 PWs)   bands (ev):

    -2.6290  -0.8315   2.6059   3.3259

          k =-0.1250-0.3750-0.1250 (   353 PWs)   bands (ev):

    -5.1188   2.7386   4.6612   4.7227

          k =-0.1250 0.1250-0.1250 (   344 PWs)   bands (ev):

    -5.6437   4.3550   5.6641   5.6641

          k =-0.1250-0.6250 0.1250 (   351 PWs)   bands (ev):

    -4.0929   1.0277   3.3443   3.7910

          k =-0.1250-0.1250 0.1250 (   344 PWs)   bands (ev):

    -5.6437   4.3550   5.6641   5.6641

          k = 0.6250-0.1250-0.1250 (   351 PWs)   bands (ev):

    -4.0929   1.0277   3.3443   3.7910

          k = 0.6250 0.3750-0.1250 (   360 PWs)   bands (ev):

    -3.6809   0.1629   2.7057   4.0655

          k = 0.6250 0.1250 0.1250 (   351 PWs)   bands (ev):

    -4.0929   1.0277   3.3443   3.7910

          k = 0.6250 0.6250 0.1250 (   363 PWs)   bands (ev):

    -2.9993  -0.6198   2.0577   4.1019

          k =-0.8750 0.1250-0.6250 (   361 PWs)   bands (ev):

    -2.4639  -0.9278   2.0024   3.0695

          k =-0.8750 0.6250-0.6250 (   355 PWs)   bands (ev):

    -4.6230   1.3689   3.6893   5.1831

          k =-0.1250 0.6250-0.8750 (   361 PWs)   bands (ev):

    -2.4639  -0.9278   2.0024   3.0695

          k =-0.1250 1.1250-0.8750 (   360 PWs)   bands (ev):

    -2.6290  -0.8315   2.6059   3.3259

          k =-0.1250 0.8750-0.6250 (   361 PWs)   bands (ev):

    -2.4639  -0.9278   2.0024   3.0695

          k =-0.1250 1.3750-0.6250 (   363 PWs)   bands (ev):

    -2.9993  -0.6198   2.0577   4.1019

          k =-0.1250-0.8750-0.6250 (   361 PWs)   bands (ev):

    -2.4639  -0.9278   2.0024   3.0695

          k =-0.1250-0.3750-0.6250 (   360 PWs)   bands (ev):

    -3.6809   0.1629   2.7057   4.0655

          k = 0.8750-0.6250 0.1250 (   361 PWs)   bands (ev):

    -2.4639  -0.9278   2.0024   3.0695

          k = 0.8750-0.1250 0.1250 (   360 PWs)   bands (ev):

    -2.6290  -0.8315   2.6059   3.3259

          k =-0.6250-0.1250-0.3750 (   360 PWs)   bands (ev):

    -3.6809   0.1629   2.7057   4.0655

          k =-0.6250 0.3750-0.3750 (   361 PWs)   bands (ev):

    -3.4926  -0.6955   3.7062   4.4163

          k = 0.1250 0.3750-0.6250 (   360 PWs)   bands (ev):

    -3.6809   0.1629   2.7057   4.0655

          k = 0.1250 0.8750-0.6250 (   361 PWs)   bands (ev):

    -2.4639  -0.9278   2.0024   3.0695

          k = 0.1250 0.6250-0.3750 (   360 PWs)   bands (ev):

    -3.6809   0.1629   2.7057   4.0655

          k = 0.1250 1.1250-0.3750 (   361 PWs)   bands (ev):

    -2.4639  -0.9278   2.0024   3.0695

          k = 0.1250-0.6250-0.3750 (   360 PWs)   bands (ev):

    -3.6809   0.1629   2.7057   4.0655

          k = 0.1250-0.1250-0.3750 (   353 PWs)   bands (ev):

    -5.1188   2.7386   4.6612   4.7227

          k = 0.6250-0.3750-0.1250 (   360 PWs)   bands (ev):

    -3.6809   0.1629   2.7057   4.0655

          k = 0.6250 0.1250-0.1250 (   351 PWs)   bands (ev):

    -4.0929   1.0277   3.3443   3.7910

          k =-0.1250 0.8750 0.1250 (   360 PWs)   bands (ev):

    -2.6290  -0.8315   2.6059   3.3259

          k =-0.1250 1.3750 0.1250 (   351 PWs)   bands (ev):

    -4.0929   1.0277   3.3443   3.7910

          k =-0.8750-0.1250-0.1250 (   360 PWs)   bands (ev):

    -2.6290  -0.8315   2.6059   3.3259

          k =-0.8750 0.3750-0.1250 (   361 PWs)   bands (ev):

    -2.4639  -0.9278   2.0024   3.0695

          k =-0.8750 0.1250 0.1250 (   360 PWs)   bands (ev):

    -2.6290  -0.8315   2.6059   3.3259

          k =-0.8750 0.6250 0.1250 (   361 PWs)   bands (ev):

    -2.4639  -0.9278   2.0024   3.0695

          k =-0.3750-0.3750 0.3750 (   353 PWs)   bands (ev):

    -4.1937   0.0893   4.8780   4.8780

          k =-0.3750 0.1250 0.3750 (   355 PWs)   bands (ev):

    -4.6230   1.3689   3.6893   5.1831

          k =-1.1250 0.3750-0.3750 (   363 PWs)   bands (ev):

    -2.9993  -0.6198   2.0577   4.1019

          k =-1.1250 0.8750-0.3750 (   351 PWs)   bands (ev):

    -4.0929   1.0277   3.3443   3.7910

          k =-0.3750 1.1250-0.3750 (   363 PWs)   bands (ev):

    -2.9993  -0.6198   2.0577   4.1019

          k =-0.3750 1.6250-0.3750 (   353 PWs)   bands (ev):

    -4.1937   0.0893   4.8780   4.8780

          k =-0.3750-1.1250-0.3750 (   363 PWs)   bands (ev):

    -2.9993  -0.6198   2.0577   4.1019

          k =-0.3750-0.6250-0.3750 (   361 PWs)   bands (ev):

    -3.4926  -0.6955   3.7062   4.4163

     highest occupied level (ev):     5.6641

     Writing output data file silicon.10.346.save

                                                                                

     bravais-lattice index     =            2
     lattice parameter (alat)  =      10.3460  a.u.
     unit-cell volume          =     276.8582 (a.u.)^3
     number of atoms/cell      =            2
     number of atomic types    =            1
     kinetic-energy cut-off    =      18.0000  Ry
     charge density cut-off    =      72.0000  Ry
     convergence threshold     =      1.0E-12
     beta                      =       0.7000
     number of iterations used =            4
     Exchange-correlation      = SLA  PW   PBE  PBE ( 1  4  3  4 0 0)


     celldm(1)=   10.34600  celldm(2)=    0.00000  celldm(3)=    0.00000
     celldm(4)=    0.00000  celldm(5)=    0.00000  celldm(6)=    0.00000

     crystal axes: (cart. coord. in units of alat)
               a(1) = ( -0.5000  0.0000  0.5000 )  
               a(2) = (  0.0000  0.5000  0.5000 )  
               a(3) = ( -0.5000  0.5000  0.0000 )  

     reciprocal axes: (cart. coord. in units 2 pi/alat)
               b(1) = ( -1.0000 -1.0000  1.0000 )  
               b(2) = (  1.0000  1.0000  1.0000 )  
               b(3) = ( -1.0000  1.0000 -1.0000 )  


     Atoms inside the unit cell: 

     Cartesian axes

     site n.  atom      mass           positions (alat units)
        1     Si  28.0860   tau(    1) = (    0.00000    0.00000    0.00000  )
        2     Si  28.0860   tau(    2) = (    0.25000    0.25000    0.25000  )

     Computing dynamical matrix for 
                    q = (   0.0000000   0.5000000   0.0000000 )

      8 Sym.Ops. (no q -> -q+G )


     G cutoff =  195.2170  (    710 G-vectors)     FFT grid: ( 20, 20, 20)
     number of k points=    80

     PseudoPot. # 1 for Si read from file:
     /home/max/quantum_espresso/qe-6.1/pseudo/si_pbe_v1.uspp.F.UPF.txt
     MD5 check sum: a056efeee980c13900f22a371efd63c1
     Pseudo is Ultrasoft + core correction, Zval =  4.0
     Generated by new atomic code, or converted to UPF format
     Using radial grid of  899 points,  6 beta functions with: 
                l(1) =   0
                l(2) =   0
                l(3) =   1
                l(4) =   1
                l(5) =   2
                l(6) =   2
     Q(r) pseudized with  8 coefficients,  rinner =    0.900   0.900   0.900
                                                       0.900   0.900

     Mode symmetry, C_4v (4mm)  point group:


     Atomic displacements:
     There are   4 irreducible representations

     Representation     1      1 modes -A_1  G_1 D_1  To be done

     Representation     2      1 modes -B_2  G_4 D_2'  To be done

     Representation     3      2 modes -E    G_5 D_5  To be done

     Representation     4      2 modes -E    G_5 D_5  To be done



     Alpha used in Ewald sum =   0.7000
     PHONON       :    23.86s CPU        25.97s WALL



     Representation #  1 mode #   1

     Self-consistent Calculation

      iter #   1 total cpu time :    26.2 secs   av.it.:   5.8
      thresh= 1.000E-02 alpha_mix =  0.700 |ddv_scf|^2 =  2.963E-03

      iter #   2 total cpu time :    26.4 secs   av.it.:   7.7
      thresh= 5.443E-03 alpha_mix =  0.700 |ddv_scf|^2 =  3.904E-02

      iter #   3 total cpu time :    26.6 secs   av.it.:   6.8
      thresh= 1.000E-02 alpha_mix =  0.700 |ddv_scf|^2 =  1.488E-07

      iter #   4 total cpu time :    26.8 secs   av.it.:   8.1
      thresh= 3.857E-05 alpha_mix =  0.700 |ddv_scf|^2 =  1.415E-08

      iter #   5 total cpu time :    27.0 secs   av.it.:   7.8
      thresh= 1.190E-05 alpha_mix =  0.700 |ddv_scf|^2 =  7.265E-10

      iter #   6 total cpu time :    27.4 secs   av.it.:   7.9
      thresh= 2.695E-06 alpha_mix =  0.700 |ddv_scf|^2 =  2.994E-12

      iter #   7 total cpu time :    27.6 secs   av.it.:   7.9
      thresh= 1.730E-07 alpha_mix =  0.700 |ddv_scf|^2 =  5.665E-13

     End of self-consistent calculation

     Convergence has been achieved 


     Representation #  2 mode #   2

     Self-consistent Calculation

      iter #   1 total cpu time :    27.8 secs   av.it.:   4.9
      thresh= 1.000E-02 alpha_mix =  0.700 |ddv_scf|^2 =  5.508E-06

      iter #   2 total cpu time :    28.0 secs   av.it.:   8.7
      thresh= 2.347E-04 alpha_mix =  0.700 |ddv_scf|^2 =  1.342E-06

      iter #   3 total cpu time :    28.2 secs   av.it.:   8.6
      thresh= 1.159E-04 alpha_mix =  0.700 |ddv_scf|^2 =  4.293E-08

      iter #   4 total cpu time :    28.4 secs   av.it.:   8.2
      thresh= 2.072E-05 alpha_mix =  0.700 |ddv_scf|^2 =  7.207E-10

      iter #   5 total cpu time :    28.6 secs   av.it.:   8.6
      thresh= 2.685E-06 alpha_mix =  0.700 |ddv_scf|^2 =  6.872E-12

      iter #   6 total cpu time :    28.8 secs   av.it.:   8.0
      thresh= 2.621E-07 alpha_mix =  0.700 |ddv_scf|^2 =  7.441E-14

     End of self-consistent calculation

     Convergence has been achieved 


     Representation #  3 modes #   3  4

     Self-consistent Calculation

      iter #   1 total cpu time :    29.4 secs   av.it.:   5.0
      thresh= 1.000E-02 alpha_mix =  0.700 |ddv_scf|^2 =  1.023E-06

      iter #   2 total cpu time :    29.9 secs   av.it.:   9.7
      thresh= 1.011E-04 alpha_mix =  0.700 |ddv_scf|^2 =  1.269E-07

      iter #   3 total cpu time :    30.3 secs   av.it.:   9.5
      thresh= 3.562E-05 alpha_mix =  0.700 |ddv_scf|^2 =  6.724E-09

      iter #   4 total cpu time :    30.8 secs   av.it.:   8.8
      thresh= 8.200E-06 alpha_mix =  0.700 |ddv_scf|^2 =  9.557E-12

      iter #   5 total cpu time :    31.4 secs   av.it.:   9.2
      thresh= 3.091E-07 alpha_mix =  0.700 |ddv_scf|^2 =  3.003E-13

     End of self-consistent calculation

     Convergence has been achieved 


     Representation #  4 modes #   5  6

     Self-consistent Calculation

      iter #   1 total cpu time :    31.8 secs   av.it.:   5.0
      thresh= 1.000E-02 alpha_mix =  0.700 |ddv_scf|^2 =  9.387E-07

      iter #   2 total cpu time :    32.3 secs   av.it.:   9.8
      thresh= 9.689E-05 alpha_mix =  0.700 |ddv_scf|^2 =  1.188E-07

      iter #   3 total cpu time :    32.7 secs   av.it.:   9.4
      thresh= 3.447E-05 alpha_mix =  0.700 |ddv_scf|^2 =  7.037E-09

      iter #   4 total cpu time :    33.3 secs   av.it.:   8.9
      thresh= 8.389E-06 alpha_mix =  0.700 |ddv_scf|^2 =  1.486E-11

      iter #   5 total cpu time :    33.8 secs   av.it.:   9.2
      thresh= 3.854E-07 alpha_mix =  0.700 |ddv_scf|^2 =  4.438E-14

     End of self-consistent calculation

     Convergence has been achieved 

     Number of q in the star =    6
     List of q in the star:
          1   0.000000000   0.500000000   0.000000000
          2   0.000000000  -0.500000000   0.000000000
          3   0.500000000   0.000000000   0.000000000
          4   0.000000000   0.000000000   0.500000000
          5   0.000000000   0.000000000  -0.500000000
          6  -0.500000000   0.000000000   0.000000000

     Diagonalizing the dynamical matrix

     q = (    0.000000000   0.500000000   0.000000000 ) 

 **************************************************************************
     freq (    1) =       4.299547 [THz] =     143.417458 [cm-1]
     freq (    2) =       4.299547 [THz] =     143.417458 [cm-1]
     freq (    3) =       7.140086 [THz] =     238.167641 [cm-1]
     freq (    4) =      14.020281 [THz] =     467.666229 [cm-1]
     freq (    5) =      14.020281 [THz] =     467.666229 [cm-1]
     freq (    6) =      14.653509 [THz] =     488.788450 [cm-1]
 **************************************************************************

     Mode symmetry, C_4v (4mm)  point group:

     freq (  1 -  2) =        143.4  [cm-1]   --> E    G_5 D_5       
     freq (  3 -  3) =        238.2  [cm-1]   --> A_1  G_1 D_1       
     freq (  4 -  5) =        467.7  [cm-1]   --> E    G_5 D_5       
     freq (  6 -  6) =        488.8  [cm-1]   --> B_2  G_4 D_2'      

     Calculation of q =    0.7500000  -0.2500000   0.7500000

   Info: using nr1, nr2, nr3 values from input

   Info: using nr1, nr2, nr3 values from input

     Parallelization info
     --------------------
     sticks:   dense  smooth     PW     G-vecs:    dense   smooth      PW
     Min          64      64     30                  709      709     216
     Max          67      67     31                  710      710     218
     Sum         265     265    121                 2837     2837     869



     bravais-lattice index     =            2
     lattice parameter (alat)  =      10.3460  a.u.
     unit-cell volume          =     276.8582 (a.u.)^3
     number of atoms/cell      =            2
     number of atomic types    =            1
     number of electrons       =         8.00
     number of Kohn-Sham states=            4
     kinetic-energy cutoff     =      18.0000  Ry
     charge density cutoff     =      72.0000  Ry
     Exchange-correlation      = SLA  PW   PBE  PBE ( 1  4  3  4 0 0)

     celldm(1)=  10.346000  celldm(2)=   0.000000  celldm(3)=   0.000000
     celldm(4)=   0.000000  celldm(5)=   0.000000  celldm(6)=   0.000000

     crystal axes: (cart. coord. in units of alat)
               a(1) = (  -0.500000   0.000000   0.500000 )  
               a(2) = (   0.000000   0.500000   0.500000 )  
               a(3) = (  -0.500000   0.500000   0.000000 )  

     reciprocal axes: (cart. coord. in units 2 pi/alat)
               b(1) = ( -1.000000 -1.000000  1.000000 )  
               b(2) = (  1.000000  1.000000  1.000000 )  
               b(3) = ( -1.000000  1.000000 -1.000000 )  


     PseudoPot. # 1 for Si read from file:
     /home/max/quantum_espresso/qe-6.1/pseudo/si_pbe_v1.uspp.F.UPF.txt
     MD5 check sum: a056efeee980c13900f22a371efd63c1
     Pseudo is Ultrasoft + core correction, Zval =  4.0
     Generated by new atomic code, or converted to UPF format
     Using radial grid of  899 points,  6 beta functions with: 
                l(1) =   0
                l(2) =   0
                l(3) =   1
                l(4) =   1
                l(5) =   2
                l(6) =   2
     Q(r) pseudized with  8 coefficients,  rinner =    0.900   0.900   0.900
                                                       0.900   0.900

     atomic species   valence    mass     pseudopotential
        Si             4.00    28.08600     Si( 1.00)

     48 Sym. Ops., with inversion, found



   Cartesian axes

     site n.     atom                  positions (alat units)
         1           Si  tau(   1) = (   0.0000000   0.0000000   0.0000000  )
         2           Si  tau(   2) = (   0.2500000   0.2500000   0.2500000  )

     number of k points=   288

     Number of k-points >= 100: set verbosity='high' to print them.

     Dense  grid:     2837 G-vectors     FFT dimensions: (  20,  20,  20)

     Estimated max dynamical RAM per process >       0.33MB

     Estimated total allocated dynamical RAM >       1.32MB

     Check: negative/imaginary core charge=   -0.000006    0.000000

     The potential is recalculated from file :
     ./_ph0/silicon.10.346.save/charge-density.dat

     Starting wfc are    8 atomic wfcs

     Band Structure Calculation
     Davidson diagonalization with overlap

     ethr =  1.25E-10,  avg # of iterations = 11.6

     total cpu time spent up to now is        4.9 secs

     End of band structure calculation

     Number of k-points >= 100: set verbosity='high' to print the bands.

     highest occupied level (ev):     5.6641

     Writing output data file silicon.10.346.save

                                                                                

     bravais-lattice index     =            2
     lattice parameter (alat)  =      10.3460  a.u.
     unit-cell volume          =     276.8582 (a.u.)^3
     number of atoms/cell      =            2
     number of atomic types    =            1
     kinetic-energy cut-off    =      18.0000  Ry
     charge density cut-off    =      72.0000  Ry
     convergence threshold     =      1.0E-12
     beta                      =       0.7000
     number of iterations used =            4
     Exchange-correlation      = SLA  PW   PBE  PBE ( 1  4  3  4 0 0)


     celldm(1)=   10.34600  celldm(2)=    0.00000  celldm(3)=    0.00000
     celldm(4)=    0.00000  celldm(5)=    0.00000  celldm(6)=    0.00000

     crystal axes: (cart. coord. in units of alat)
               a(1) = ( -0.5000  0.0000  0.5000 )  
               a(2) = (  0.0000  0.5000  0.5000 )  
               a(3) = ( -0.5000  0.5000  0.0000 )  

     reciprocal axes: (cart. coord. in units 2 pi/alat)
               b(1) = ( -1.0000 -1.0000  1.0000 )  
               b(2) = (  1.0000  1.0000  1.0000 )  
               b(3) = ( -1.0000  1.0000 -1.0000 )  


     Atoms inside the unit cell: 

     Cartesian axes

     site n.  atom      mass           positions (alat units)
        1     Si  28.0860   tau(    1) = (    0.00000    0.00000    0.00000  )
        2     Si  28.0860   tau(    2) = (    0.25000    0.25000    0.25000  )

     Computing dynamical matrix for 
                    q = (   0.7500000  -0.2500000   0.7500000 )

      2 Sym.Ops. (no q -> -q+G )


     G cutoff =  195.2170  (    710 G-vectors)     FFT grid: ( 20, 20, 20)
     number of k points=   288

     PseudoPot. # 1 for Si read from file:
     /home/max/quantum_espresso/qe-6.1/pseudo/si_pbe_v1.uspp.F.UPF.txt
     MD5 check sum: a056efeee980c13900f22a371efd63c1
     Pseudo is Ultrasoft + core correction, Zval =  4.0
     Generated by new atomic code, or converted to UPF format
     Using radial grid of  899 points,  6 beta functions with: 
                l(1) =   0
                l(2) =   0
                l(3) =   1
                l(4) =   1
                l(5) =   2
                l(6) =   2
     Q(r) pseudized with  8 coefficients,  rinner =    0.900   0.900   0.900
                                                       0.900   0.900

     Mode symmetry, C_s (m)     point group:


     Atomic displacements:
     There are   6 irreducible representations

     Representation     1      1 modes -A'  To be done

     Representation     2      1 modes -A'  To be done

     Representation     3      1 modes -A'  To be done

     Representation     4      1 modes -A'  To be done

     Representation     5      1 modes -A''  To be done

     Representation     6      1 modes -A''  To be done



     Alpha used in Ewald sum =   0.7000
     PHONON       :    34.06s CPU        36.97s WALL



     Representation #  1 mode #   1

     Self-consistent Calculation

      iter #   1 total cpu time :    37.7 secs   av.it.:   5.3
      thresh= 1.000E-02 alpha_mix =  0.700 |ddv_scf|^2 =  6.116E-05

      iter #   2 total cpu time :    38.5 secs   av.it.:   8.9
      thresh= 7.821E-04 alpha_mix =  0.700 |ddv_scf|^2 =  1.603E-04

      iter #   3 total cpu time :    39.3 secs   av.it.:   7.6
      thresh= 1.266E-03 alpha_mix =  0.700 |ddv_scf|^2 =  1.148E-06

      iter #   4 total cpu time :    40.1 secs   av.it.:   8.4
      thresh= 1.071E-04 alpha_mix =  0.700 |ddv_scf|^2 =  6.193E-08

      iter #   5 total cpu time :    40.8 secs   av.it.:   8.3
      thresh= 2.489E-05 alpha_mix =  0.700 |ddv_scf|^2 =  7.556E-09

      iter #   6 total cpu time :    41.7 secs   av.it.:   8.5
      thresh= 8.692E-06 alpha_mix =  0.700 |ddv_scf|^2 =  8.422E-11

      iter #   7 total cpu time :    42.5 secs   av.it.:   8.7
      thresh= 9.177E-07 alpha_mix =  0.700 |ddv_scf|^2 =  3.025E-12

      iter #   8 total cpu time :    43.4 secs   av.it.:   8.6
      thresh= 1.739E-07 alpha_mix =  0.700 |ddv_scf|^2 =  1.976E-13

     End of self-consistent calculation

     Convergence has been achieved 


     Representation #  2 mode #   2

     Self-consistent Calculation

      iter #   1 total cpu time :    44.0 secs   av.it.:   5.4
      thresh= 1.000E-02 alpha_mix =  0.700 |ddv_scf|^2 =  1.089E-04

      iter #   2 total cpu time :    44.8 secs   av.it.:   8.7
      thresh= 1.043E-03 alpha_mix =  0.700 |ddv_scf|^2 =  3.106E-04

      iter #   3 total cpu time :    45.7 secs   av.it.:   7.4
      thresh= 1.762E-03 alpha_mix =  0.700 |ddv_scf|^2 =  7.948E-07

      iter #   4 total cpu time :    46.4 secs   av.it.:   8.6
      thresh= 8.915E-05 alpha_mix =  0.700 |ddv_scf|^2 =  6.039E-08

      iter #   5 total cpu time :    47.3 secs   av.it.:   8.2
      thresh= 2.457E-05 alpha_mix =  0.700 |ddv_scf|^2 =  1.076E-08

      iter #   6 total cpu time :    48.1 secs   av.it.:   8.5
      thresh= 1.037E-05 alpha_mix =  0.700 |ddv_scf|^2 =  8.402E-11

      iter #   7 total cpu time :    48.9 secs   av.it.:   8.7
      thresh= 9.166E-07 alpha_mix =  0.700 |ddv_scf|^2 =  2.741E-12

      iter #   8 total cpu time :    49.8 secs   av.it.:   8.7
      thresh= 1.656E-07 alpha_mix =  0.700 |ddv_scf|^2 =  8.013E-13

     End of self-consistent calculation

     Convergence has been achieved 


     Representation #  3 mode #   3

     Self-consistent Calculation

      iter #   1 total cpu time :    50.4 secs   av.it.:   5.3
      thresh= 1.000E-02 alpha_mix =  0.700 |ddv_scf|^2 =  8.542E-05

      iter #   2 total cpu time :    51.4 secs   av.it.:   8.8
      thresh= 9.242E-04 alpha_mix =  0.700 |ddv_scf|^2 =  2.279E-04

      iter #   3 total cpu time :    52.1 secs   av.it.:   7.4
      thresh= 1.509E-03 alpha_mix =  0.700 |ddv_scf|^2 =  1.354E-06

      iter #   4 total cpu time :    52.8 secs   av.it.:   8.2
      thresh= 1.164E-04 alpha_mix =  0.700 |ddv_scf|^2 =  6.201E-08

      iter #   5 total cpu time :    53.7 secs   av.it.:   8.4
      thresh= 2.490E-05 alpha_mix =  0.700 |ddv_scf|^2 =  1.108E-08

      iter #   6 total cpu time :    54.5 secs   av.it.:   8.4
      thresh= 1.052E-05 alpha_mix =  0.700 |ddv_scf|^2 =  4.806E-11

      iter #   7 total cpu time :    55.4 secs   av.it.:   8.7
      thresh= 6.933E-07 alpha_mix =  0.700 |ddv_scf|^2 =  1.782E-12

      iter #   8 total cpu time :    56.2 secs   av.it.:   8.8
      thresh= 1.335E-07 alpha_mix =  0.700 |ddv_scf|^2 =  3.936E-13

     End of self-consistent calculation

     Convergence has been achieved 


     Representation #  4 mode #   4

     Self-consistent Calculation

      iter #   1 total cpu time :    56.8 secs   av.it.:   5.2
      thresh= 1.000E-02 alpha_mix =  0.700 |ddv_scf|^2 =  3.774E-05

      iter #   2 total cpu time :    57.8 secs   av.it.:   8.9
[...]
        k(   59) = (  -0.8750000   0.1250000  -0.1250000), wk =   0.0625000
        k(   60) = (  -1.3750000  -0.8750000  -0.1250000), wk =   0.0000000
        k(   61) = (  -1.1250000   0.3750000  -0.3750000), wk =   0.0625000
        k(   62) = (  -1.6250000  -0.6250000  -0.3750000), wk =   0.0000000
        k(   63) = (  -0.3750000   0.3750000   1.1250000), wk =   0.0625000
        k(   64) = (  -0.8750000  -0.6250000   1.1250000), wk =   0.0000000

     Dense  grid:     2837 G-vectors     FFT dimensions: (  20,  20,  20)

     Estimated max dynamical RAM per process >       0.33MB

     Estimated total allocated dynamical RAM >       1.32MB

     Check: negative/imaginary core charge=   -0.000006    0.000000

     The potential is recalculated from file :
     ./_ph0/silicon.10.346.save/charge-density.dat

     Starting wfc are    8 atomic wfcs

     Band Structure Calculation
     Davidson diagonalization with overlap

     ethr =  1.25E-10,  avg # of iterations = 11.6

     total cpu time spent up to now is        7.5 secs

     End of band structure calculation

          k =-0.1250 0.1250 0.1250 (   344 PWs)   bands (ev):

    -5.6437   4.3550   5.6641   5.6641

          k =-0.6250-0.8750 0.1250 (   361 PWs)   bands (ev):

    -2.4639  -0.9278   2.0024   3.0695

          k =-0.3750 0.3750-0.1250 (   355 PWs)   bands (ev):

    -4.6230   1.3689   3.6893   5.1831

          k =-0.8750-0.6250-0.1250 (   361 PWs)   bands (ev):

    -2.4639  -0.9278   2.0024   3.0695

          k = 0.3750-0.3750 0.6250 (   361 PWs)   bands (ev):

    -3.4926  -0.6955   3.7062   4.4163

          k =-0.1250-1.3750 0.6250 (   363 PWs)   bands (ev):

    -2.9993  -0.6198   2.0577   4.1019

          k = 0.1250-0.1250 0.3750 (   353 PWs)   bands (ev):

    -5.1188   2.7386   4.6612   4.7227

          k =-0.3750-1.1250 0.3750 (   363 PWs)   bands (ev):

    -2.9993  -0.6198   2.0577   4.1019

          k =-0.1250 0.6250 0.1250 (   351 PWs)   bands (ev):

    -4.0929   1.0277   3.3443   3.7910

          k =-0.6250-0.3750 0.1250 (   360 PWs)   bands (ev):

    -3.6809   0.1629   2.7057   4.0655

          k = 0.6250-0.1250 0.8750 (   361 PWs)   bands (ev):

    -2.4639  -0.9278   2.0024   3.0695

          k = 0.1250-1.1250 0.8750 (   360 PWs)   bands (ev):

    -2.6290  -0.8315   2.6059   3.3259

          k = 0.3750 0.1250 0.6250 (   360 PWs)   bands (ev):

    -3.6809   0.1629   2.7057   4.0655

          k =-0.1250-0.8750 0.6250 (   361 PWs)   bands (ev):

    -2.4639  -0.9278   2.0024   3.0695

          k =-0.1250-0.8750 0.1250 (   360 PWs)   bands (ev):

    -2.6290  -0.8315   2.6059   3.3259

          k =-0.6250-1.8750 0.1250 (   351 PWs)   bands (ev):

    -4.0929   1.0277   3.3443   3.7910

          k =-0.3750 0.3750 0.3750 (   353 PWs)   bands (ev):

    -4.1937   0.0893   4.8780   4.8780

          k =-0.8750-0.6250 0.3750 (   360 PWs)   bands (ev):

    -3.6809   0.1629   2.7057   4.0655

          k = 0.3750-0.3750 1.1250 (   363 PWs)   bands (ev):

    -2.9993  -0.6198   2.0577   4.1019

          k =-0.1250-1.3750 1.1250 (   361 PWs)   bands (ev):

    -2.4639  -0.9278   2.0024   3.0695

          k = 0.1250-0.3750 0.3750 (   355 PWs)   bands (ev):

    -4.6230   1.3689   3.6893   5.1831

          k =-0.3750-1.3750 0.3750 (   361 PWs)   bands (ev):

    -3.4926  -0.6955   3.7062   4.4163

          k = 0.3750-0.3750-0.1250 (   355 PWs)   bands (ev):

    -4.6230   1.3689   3.6893   5.1831

          k =-0.1250-1.3750-0.1250 (   351 PWs)   bands (ev):

    -4.0929   1.0277   3.3443   3.7910

          k =-0.6250 0.3750-0.3750 (   361 PWs)   bands (ev):

    -3.4926  -0.6955   3.7062   4.4163

          k =-1.1250-0.6250-0.3750 (   360 PWs)   bands (ev):

    -3.6809   0.1629   2.7057   4.0655

          k =-0.3750 0.3750 0.6250 (   361 PWs)   bands (ev):

    -3.4926  -0.6955   3.7062   4.4163

          k =-0.8750-0.6250 0.6250 (   355 PWs)   bands (ev):

    -4.6230   1.3689   3.6893   5.1831

          k =-0.3750 0.1250-0.1250 (   353 PWs)   bands (ev):

    -5.1188   2.7386   4.6612   4.7227

          k =-0.8750-0.8750-0.1250 (   360 PWs)   bands (ev):

    -2.6290  -0.8315   2.6059   3.3259

          k =-0.1250 0.1250 0.3750 (   353 PWs)   bands (ev):

    -5.1188   2.7386   4.6612   4.7227

          k =-0.6250-0.8750 0.3750 (   360 PWs)   bands (ev):

    -3.6809   0.1629   2.7057   4.0655

          k = 0.1250 0.6250-0.1250 (   351 PWs)   bands (ev):

    -4.0929   1.0277   3.3443   3.7910

          k =-0.3750-0.3750-0.1250 (   355 PWs)   bands (ev):

    -4.6230   1.3689   3.6893   5.1831

          k = 0.6250 0.1250-0.1250 (   351 PWs)   bands (ev):

    -4.0929   1.0277   3.3443   3.7910

          k = 0.1250-0.8750-0.1250 (   360 PWs)   bands (ev):

    -2.6290  -0.8315   2.6059   3.3259

          k =-0.8750 0.1250-0.6250 (   361 PWs)   bands (ev):

    -2.4639  -0.9278   2.0024   3.0695

          k =-1.3750-0.8750-0.6250 (   355 PWs)   bands (ev):

    -4.6230   1.3689   3.6893   5.1831

          k = 0.8750-0.1250 0.6250 (   361 PWs)   bands (ev):

    -2.4639  -0.9278   2.0024   3.0695

          k = 0.3750-1.1250 0.6250 (   360 PWs)   bands (ev):

    -3.6809   0.1629   2.7057   4.0655

          k =-0.6250 0.1250 0.8750 (   361 PWs)   bands (ev):

    -2.4639  -0.9278   2.0024   3.0695

          k =-1.1250-0.8750 0.8750 (   344 PWs)   bands (ev):

    -5.6437   4.3550   5.6641   5.6641

          k =-0.1250 0.8750 0.6250 (   361 PWs)   bands (ev):

    -2.4639  -0.9278   2.0024   3.0695

          k =-0.6250-0.1250 0.6250 (   363 PWs)   bands (ev):

    -2.9993  -0.6198   2.0577   4.1019

          k = 0.1250 0.8750-0.6250 (   361 PWs)   bands (ev):

    -2.4639  -0.9278   2.0024   3.0695

          k =-0.3750-0.1250-0.6250 (   360 PWs)   bands (ev):

    -3.6809   0.1629   2.7057   4.0655

          k =-0.6250-0.1250-0.3750 (   360 PWs)   bands (ev):

    -3.6809   0.1629   2.7057   4.0655

          k =-1.1250-1.1250-0.3750 (   351 PWs)   bands (ev):

    -4.0929   1.0277   3.3443   3.7910

          k = 0.6250 0.1250 0.3750 (   360 PWs)   bands (ev):

    -3.6809   0.1629   2.7057   4.0655

          k = 0.1250-0.8750 0.3750 (   361 PWs)   bands (ev):

    -2.4639  -0.9278   2.0024   3.0695

          k =-0.3750-0.1250 0.6250 (   360 PWs)   bands (ev):

    -3.6809   0.1629   2.7057   4.0655

          k =-0.8750-1.1250 0.6250 (   353 PWs)   bands (ev):

    -5.1188   2.7386   4.6612   4.7227

          k = 0.1250 0.6250 0.3750 (   360 PWs)   bands (ev):

    -3.6809   0.1629   2.7057   4.0655

          k =-0.3750-0.3750 0.3750 (   353 PWs)   bands (ev):

    -4.1937   0.0893   4.8780   4.8780

          k =-0.1250 0.6250-0.3750 (   360 PWs)   bands (ev):

    -3.6809   0.1629   2.7057   4.0655

          k =-0.6250-0.3750-0.3750 (   361 PWs)   bands (ev):

    -3.4926  -0.6955   3.7062   4.4163

          k = 0.1250-0.8750-0.1250 (   360 PWs)   bands (ev):

    -2.6290  -0.8315   2.6059   3.3259

          k =-0.3750-1.8750-0.1250 (   353 PWs)   bands (ev):

    -5.1188   2.7386   4.6612   4.7227

          k =-0.8750 0.1250-0.1250 (   360 PWs)   bands (ev):

    -2.6290  -0.8315   2.6059   3.3259

          k =-1.3750-0.8750-0.1250 (   361 PWs)   bands (ev):

    -2.4639  -0.9278   2.0024   3.0695

          k =-1.1250 0.3750-0.3750 (   363 PWs)   bands (ev):

    -2.9993  -0.6198   2.0577   4.1019

          k =-1.6250-0.6250-0.3750 (   361 PWs)   bands (ev):

    -3.4926  -0.6955   3.7062   4.4163

          k =-0.3750 0.3750 1.1250 (   363 PWs)   bands (ev):

    -2.9993  -0.6198   2.0577   4.1019

          k =-0.8750-0.6250 1.1250 (   353 PWs)   bands (ev):

    -5.1188   2.7386   4.6612   4.7227

     highest occupied level (ev):     5.6641

     Writing output data file silicon.10.346.save

                                                                                

     bravais-lattice index     =            2
     lattice parameter (alat)  =      10.3460  a.u.
     unit-cell volume          =     276.8582 (a.u.)^3
     number of atoms/cell      =            2
     number of atomic types    =            1
     kinetic-energy cut-off    =      18.0000  Ry
     charge density cut-off    =      72.0000  Ry
     convergence threshold     =      1.0E-12
     beta                      =       0.7000
     number of iterations used =            4
     Exchange-correlation      = SLA  PW   PBE  PBE ( 1  4  3  4 0 0)


     celldm(1)=   10.34600  celldm(2)=    0.00000  celldm(3)=    0.00000
     celldm(4)=    0.00000  celldm(5)=    0.00000  celldm(6)=    0.00000

     crystal axes: (cart. coord. in units of alat)
               a(1) = ( -0.5000  0.0000  0.5000 )  
               a(2) = (  0.0000  0.5000  0.5000 )  
               a(3) = ( -0.5000  0.5000  0.0000 )  

     reciprocal axes: (cart. coord. in units 2 pi/alat)
               b(1) = ( -1.0000 -1.0000  1.0000 )  
               b(2) = (  1.0000  1.0000  1.0000 )  
               b(3) = ( -1.0000  1.0000 -1.0000 )  


     Atoms inside the unit cell: 

     Cartesian axes

     site n.  atom      mass           positions (alat units)
        1     Si  28.0860   tau(    1) = (    0.00000    0.00000    0.00000  )
        2     Si  28.0860   tau(    2) = (    0.25000    0.25000    0.25000  )

     Computing dynamical matrix for 
                    q = (  -0.5000000  -1.0000000   0.0000000 )

      8 Sym.Ops. (no q -> -q+G )


     G cutoff =  195.2170  (    710 G-vectors)     FFT grid: ( 20, 20, 20)
     number of k points=    64

     PseudoPot. # 1 for Si read from file:
     /home/max/quantum_espresso/qe-6.1/pseudo/si_pbe_v1.uspp.F.UPF.txt
     MD5 check sum: a056efeee980c13900f22a371efd63c1
     Pseudo is Ultrasoft + core correction, Zval =  4.0
     Generated by new atomic code, or converted to UPF format
     Using radial grid of  899 points,  6 beta functions with: 
                l(1) =   0
                l(2) =   0
                l(3) =   1
                l(4) =   1
                l(5) =   2
                l(6) =   2
     Q(r) pseudized with  8 coefficients,  rinner =    0.900   0.900   0.900
                                                       0.900   0.900


     Atomic displacements:
     There are   3 irreducible representations

     Representation     1      2 modes -  To be done

     Representation     2      2 modes -  To be done

     Representation     3      2 modes -  To be done



     Alpha used in Ewald sum =   0.7000
     PHONON       :  1m24.72s CPU     1m33.29s WALL



     Representation #  1 modes #   1  2

     Self-consistent Calculation

      iter #   1 total cpu time :    93.6 secs   av.it.:   5.3
      thresh= 1.000E-02 alpha_mix =  0.700 |ddv_scf|^2 =  6.358E-06

      iter #   2 total cpu time :    93.9 secs   av.it.:   9.9
      thresh= 2.522E-04 alpha_mix =  0.700 |ddv_scf|^2 =  3.430E-06

      iter #   3 total cpu time :    94.3 secs   av.it.:   9.3
      thresh= 1.852E-04 alpha_mix =  0.700 |ddv_scf|^2 =  9.083E-09

      iter #   4 total cpu time :    94.7 secs   av.it.:   9.0
      thresh= 9.531E-06 alpha_mix =  0.700 |ddv_scf|^2 =  1.959E-11

      iter #   5 total cpu time :    95.0 secs   av.it.:   9.2
      thresh= 4.426E-07 alpha_mix =  0.700 |ddv_scf|^2 =  5.744E-13

     End of self-consistent calculation

     Convergence has been achieved 


     Representation #  2 modes #   3  4

     Self-consistent Calculation

      iter #   1 total cpu time :    95.5 secs   av.it.:   5.2
      thresh= 1.000E-02 alpha_mix =  0.700 |ddv_scf|^2 =  9.802E-06

      iter #   2 total cpu time :    95.9 secs   av.it.:   9.9
      thresh= 3.131E-04 alpha_mix =  0.700 |ddv_scf|^2 =  1.309E-05

      iter #   3 total cpu time :    96.2 secs   av.it.:   9.1
      thresh= 3.618E-04 alpha_mix =  0.700 |ddv_scf|^2 =  1.058E-08

      iter #   4 total cpu time :    96.6 secs   av.it.:   8.8
      thresh= 1.028E-05 alpha_mix =  0.700 |ddv_scf|^2 =  8.522E-11

      iter #   5 total cpu time :    96.9 secs   av.it.:   9.4
      thresh= 9.231E-07 alpha_mix =  0.700 |ddv_scf|^2 =  1.811E-12

      iter #   6 total cpu time :    97.5 secs   av.it.:   9.1
      thresh= 1.346E-07 alpha_mix =  0.700 |ddv_scf|^2 =  1.488E-14

     End of self-consistent calculation

     Convergence has been achieved 


     Representation #  3 modes #   5  6

     Self-consistent Calculation

      iter #   1 total cpu time :    97.8 secs   av.it.:   5.1
      thresh= 1.000E-02 alpha_mix =  0.700 |ddv_scf|^2 =  2.666E-06

      iter #   2 total cpu time :    98.2 secs   av.it.:   9.7
      thresh= 1.633E-04 alpha_mix =  0.700 |ddv_scf|^2 =  1.449E-06

      iter #   3 total cpu time :    98.5 secs   av.it.:   9.1
      thresh= 1.204E-04 alpha_mix =  0.700 |ddv_scf|^2 =  8.796E-09

      iter #   4 total cpu time :    98.9 secs   av.it.:   8.7
      thresh= 9.379E-06 alpha_mix =  0.700 |ddv_scf|^2 =  4.394E-11

      iter #   5 total cpu time :    99.5 secs   av.it.:   9.1
      thresh= 6.628E-07 alpha_mix =  0.700 |ddv_scf|^2 =  6.905E-13

     End of self-consistent calculation

     Convergence has been achieved 

     Number of q in the star =    6
     List of q in the star:
          1  -0.500000000  -1.000000000   0.000000000
          2   0.000000000   1.000000000   0.500000000
          3   0.000000000  -1.000000000  -0.500000000
          4   0.500000000   1.000000000   0.000000000
          5  -1.000000000  -0.500000000   0.000000000
          6   0.000000000  -0.500000000  -1.000000000

     Diagonalizing the dynamical matrix

     q = (   -0.500000000  -1.000000000   0.000000000 ) 

 **************************************************************************
     freq (    1) =       7.338314 [THz] =     244.779792 [cm-1]
     freq (    2) =       7.338314 [THz] =     244.779792 [cm-1]
     freq (    3) =      10.938443 [THz] =     364.867193 [cm-1]
     freq (    4) =      10.938443 [THz] =     364.867193 [cm-1]
     freq (    5) =      13.851992 [THz] =     462.052711 [cm-1]
     freq (    6) =      13.851992 [THz] =     462.052711 [cm-1]
 **************************************************************************

     init_run     :      0.56s CPU      0.59s WALL (       7 calls)
     electrons    :      5.29s CPU      6.05s WALL (       7 calls)

     Called by init_run:
     wfcinit      :      0.00s CPU      0.00s WALL (       7 calls)
     potinit      :      0.02s CPU      0.02s WALL (       7 calls)

     Called by electrons:
     c_bands      :      5.29s CPU      6.04s WALL (       7 calls)
     v_of_rho     :      0.01s CPU      0.01s WALL (       8 calls)
     newd         :      0.03s CPU      0.03s WALL (       8 calls)

     Called by c_bands:
     init_us_2    :      0.69s CPU      0.76s WALL (   17588 calls)
     cegterg      :      4.47s CPU      5.10s WALL (     796 calls)

     Called by sum_band:

     Called by *egterg:
     h_psi        :     49.41s CPU     54.48s WALL (  152128 calls)
     s_psi        :      5.84s CPU      6.37s WALL (  308976 calls)
     g_psi        :      0.03s CPU      0.03s WALL (    9268 calls)
     cdiaghg      :      0.49s CPU      0.58s WALL (   10064 calls)

     Called by h_psi:
     h_psi:pot    :     49.22s CPU     54.26s WALL (  152128 calls)
     h_psi:calbec :      5.31s CPU      5.94s WALL (  152128 calls)
     vloc_psi     :     40.76s CPU     44.87s WALL (  152128 calls)
     add_vuspsi   :      2.92s CPU      3.22s WALL (  152128 calls)

     General routines
     calbec       :     11.59s CPU     12.89s WALL (  345348 calls)
     fft          :      0.56s CPU      0.61s WALL (    5239 calls)
     ffts         :      0.17s CPU      0.18s WALL (    2748 calls)
     fftw         :     47.71s CPU     52.59s WALL ( 1378092 calls)
     davcio       :      0.31s CPU      0.35s WALL (   79045 calls)

     Parallel routines
     fft_scatter  :     15.46s CPU     17.46s WALL ( 1386079 calls)

     PHONON       :  1m30.18s CPU     1m39.49s WALL

     INITIALIZATION: 
     phq_setup    :      0.06s CPU      0.06s WALL (       8 calls)
     phq_init     :      2.25s CPU      2.53s WALL (       8 calls)

     phq_init     :      2.25s CPU      2.53s WALL (       8 calls)
     set_drhoc    :      0.29s CPU      0.33s WALL (      24 calls)
     init_vloc    :      0.01s CPU      0.01s WALL (       8 calls)
     init_us_1    :      0.52s CPU      0.53s WALL (       8 calls)
     newd         :      0.03s CPU      0.03s WALL (       8 calls)
     dvanqq       :      0.24s CPU      0.26s WALL (       8 calls)
     drho         :      1.12s CPU      1.25s WALL (       8 calls)

     DYNAMICAL MATRIX:
     dynmat0      :      0.65s CPU      0.75s WALL (       8 calls)
     phqscf       :     79.29s CPU     87.30s WALL (       8 calls)
     dynmatrix    :      0.01s CPU      0.01s WALL (       8 calls)

     phqscf       :     79.29s CPU     87.30s WALL (       8 calls)
     solve_linter :     78.51s CPU     86.43s WALL (      32 calls)
     drhodv       :      0.57s CPU      0.63s WALL (      32 calls)

     dynmat0      :      0.65s CPU      0.75s WALL (       8 calls)
     dynmat_us    :      0.42s CPU      0.49s WALL (       8 calls)
     d2ionq       :      0.01s CPU      0.01s WALL (       8 calls)
     dynmatcc     :      0.21s CPU      0.25s WALL (       8 calls)

     dynmat_us    :      0.42s CPU      0.49s WALL (       8 calls)
     addusdynmat  :      0.00s CPU      0.00s WALL (       8 calls)

     phqscf       :     79.29s CPU     87.30s WALL (       8 calls)
     solve_linter :     78.51s CPU     86.43s WALL (      32 calls)

     solve_linter :     78.51s CPU     86.43s WALL (      32 calls)
     dvqpsi_us    :      1.81s CPU      1.99s WALL (    2508 calls)
     ortho        :      1.42s CPU      1.58s WALL (   15550 calls)
     cgsolve      :     61.68s CPU     67.95s WALL (   15550 calls)
     incdrhoscf   :      5.46s CPU      6.04s WALL (   15550 calls)
     addusddens   :      1.22s CPU      1.33s WALL (     228 calls)
     vpsifft      :      3.94s CPU      4.34s WALL (   12922 calls)
     dv_of_drho   :      0.24s CPU      0.27s WALL (     295 calls)
     mix_pot      :      0.06s CPU      0.08s WALL (     201 calls)
     psymdvscf    :      0.79s CPU      0.84s WALL (     196 calls)
     newdq        :      1.28s CPU      1.39s WALL (     201 calls)
     adddvscf     :      0.47s CPU      0.51s WALL (   13042 calls)
     drhodvus     :      0.00s CPU      0.00s WALL (      32 calls)

     dvqpsi_us    :      1.81s CPU      1.99s WALL (    2508 calls)
     dvqpsi_us_on :      0.84s CPU      0.91s WALL (    2508 calls)

     cgsolve      :     61.68s CPU     67.95s WALL (   15550 calls)
     ch_psi       :     58.91s CPU     64.78s WALL (  141268 calls)

     ch_psi       :     58.91s CPU     64.78s WALL (  141268 calls)
     h_psi        :     49.41s CPU     54.48s WALL (  152128 calls)
     last         :     10.08s CPU     11.15s WALL (  141268 calls)

     h_psi        :     49.41s CPU     54.48s WALL (  152128 calls)
     add_vuspsi   :      2.92s CPU      3.22s WALL (  152128 calls)

     incdrhoscf   :      5.46s CPU      6.04s WALL (   15550 calls)
     addusdbec    :      0.80s CPU      0.88s WALL (   17998 calls)

     drhodvus     :      0.00s CPU      0.00s WALL (      32 calls)

      General routines
     calbec       :     11.59s CPU     12.89s WALL (  345348 calls)
     fft          :      0.56s CPU      0.61s WALL (    5239 calls)
     ffts         :      0.17s CPU      0.18s WALL (    2748 calls)
     fftw         :     47.71s CPU     52.59s WALL ( 1378092 calls)
     davcio       :      0.31s CPU      0.35s WALL (   79045 calls)
     write_rec    :      0.21s CPU      0.23s WALL (     233 calls)


     PHONON       :  1m30.18s CPU     1m39.49s WALL


   This run was terminated on:  12:49:13   9Nov2017            

=------------------------------------------------------------------------------=
   JOB DONE.
=------------------------------------------------------------------------------=
