
     Program PWSCF v.6.1 (svn rev. 13369) starts on 10Nov2017 at 10:28:17 

     This program is part of the open-source Quantum ESPRESSO suite
     for quantum simulation of materials; please cite
         "P. Giannozzi et al., J. Phys.:Condens. Matter 21 395502 (2009);
          URL http://www.quantum-espresso.org", 
     in publications or presentations arising from this work. More details at
     http://www.quantum-espresso.org/quote

     Parallel version (MPI), running on     4 processors
     R & G space division:  proc/nbgrp/npool/nimage =       4
     Waiting for input...
     Reading input from standard input
     Message from routine read_cards :
     DEPRECATED: no units specified in ATOMIC_POSITIONS card
     Message from routine read_cards :
     ATOMIC_POSITIONS: units set to alat

     Current dimensions of program PWSCF are:
     Max number of different atomic species (ntypx) = 10
     Max number of k-points (npk) =  40000
     Max angular momentum in pseudopotentials (lmaxx) =  3

     Subspace diagonalization in iterative solution of the eigenvalue problem:
     a serial algorithm will be used


     Parallelization info
     --------------------
     sticks:   dense  smooth     PW     G-vecs:    dense   smooth      PW
     Min         211     108     37                 4129     1489     284
     Max         212     109     38                 4134     1492     285
     Sum         847     433    151                16529     5961    1139



     bravais-lattice index     =            2
     lattice parameter (alat)  =      10.1900  a.u.
     unit-cell volume          =     264.5225 (a.u.)^3
     number of atoms/cell      =            2
     number of atomic types    =            1
     number of electrons       =         8.00
     number of Kohn-Sham states=            4
     kinetic-energy cutoff     =      30.0000  Ry
     charge density cutoff     =     240.0000  Ry
     convergence threshold     =      1.0E-08
     mixing beta               =       0.7000
     number of iterations used =            8  plain     mixing
     Exchange-correlation      = SLA  PW   PBE  PBE ( 1  4  3  4 0 0)

     celldm(1)=  10.190000  celldm(2)=   0.000000  celldm(3)=   0.000000
     celldm(4)=   0.000000  celldm(5)=   0.000000  celldm(6)=   0.000000

     crystal axes: (cart. coord. in units of alat)
               a(1) = (  -0.500000   0.000000   0.500000 )  
               a(2) = (   0.000000   0.500000   0.500000 )  
               a(3) = (  -0.500000   0.500000   0.000000 )  

     reciprocal axes: (cart. coord. in units 2 pi/alat)
               b(1) = ( -1.000000 -1.000000  1.000000 )  
               b(2) = (  1.000000  1.000000  1.000000 )  
               b(3) = ( -1.000000  1.000000 -1.000000 )  


     PseudoPot. # 1 for Si read from file:
     /home/max/quantum_espresso/qe-6.1/pseudo/si_pbe_v1.uspp.F.UPF.txt
     MD5 check sum: a056efeee980c13900f22a371efd63c1
     Pseudo is Ultrasoft + core correction, Zval =  4.0
     Generated by new atomic code, or converted to UPF format
     Using radial grid of  899 points,  6 beta functions with: 
                l(1) =   0
                l(2) =   0
                l(3) =   1
                l(4) =   1
                l(5) =   2
                l(6) =   2
     Q(r) pseudized with  8 coefficients,  rinner =    0.900   0.900   0.900
                                                       0.900   0.900

     atomic species   valence    mass     pseudopotential
        Si             4.00    28.08600     Si( 1.00)

     48 Sym. Ops., with inversion, found (24 have fractional translation)



   Cartesian axes

     site n.     atom                  positions (alat units)
         1           Si  tau(   1) = (   0.0000000   0.0000000   0.0000000  )
         2           Si  tau(   2) = (   0.2500000   0.2500000   0.2500000  )

     number of k points=    28
                       cart. coord. in units 2pi/alat
        k(    1) = (  -0.0833333   0.0833333   0.0833333), wk =   0.0185185
        k(    2) = (  -0.2500000   0.2500000  -0.0833333), wk =   0.0555556
        k(    3) = (  -0.4166667   0.4166667  -0.2500000), wk =   0.0555556
        k(    4) = (   0.4166667  -0.4166667   0.5833333), wk =   0.0555556
        k(    5) = (   0.2500000  -0.2500000   0.4166667), wk =   0.0555556
        k(    6) = (   0.0833333  -0.0833333   0.2500000), wk =   0.0555556
        k(    7) = (  -0.0833333   0.4166667   0.0833333), wk =   0.0555556
        k(    8) = (  -0.2500000   0.5833333  -0.0833333), wk =   0.1111111
        k(    9) = (   0.5833333  -0.2500000   0.7500000), wk =   0.1111111
        k(   10) = (   0.4166667  -0.0833333   0.5833333), wk =   0.1111111
        k(   11) = (   0.2500000   0.0833333   0.4166667), wk =   0.1111111
        k(   12) = (  -0.0833333   0.7500000   0.0833333), wk =   0.0555556
        k(   13) = (   0.7500000  -0.0833333   0.9166667), wk =   0.1111111
        k(   14) = (   0.5833333   0.0833333   0.7500000), wk =   0.1111111
        k(   15) = (   0.4166667   0.2500000   0.5833333), wk =   0.1111111
        k(   16) = (  -0.0833333  -0.9166667   0.0833333), wk =   0.0555556
        k(   17) = (  -0.2500000  -0.7500000  -0.0833333), wk =   0.1111111
        k(   18) = (  -0.0833333  -0.5833333   0.0833333), wk =   0.0555556
        k(   19) = (  -0.2500000   0.2500000   0.2500000), wk =   0.0185185
        k(   20) = (  -0.4166667   0.4166667   0.0833333), wk =   0.0555556
        k(   21) = (   0.4166667  -0.4166667   0.9166667), wk =   0.0555556
        k(   22) = (   0.2500000  -0.2500000   0.7500000), wk =   0.0555556
        k(   23) = (  -0.2500000   0.5833333   0.2500000), wk =   0.0555556
        k(   24) = (   0.5833333  -0.2500000   1.0833333), wk =   0.1111111
        k(   25) = (   0.4166667  -0.0833333   0.9166667), wk =   0.1111111
        k(   26) = (  -0.2500000  -1.0833333   0.2500000), wk =   0.0555556
        k(   27) = (  -0.4166667   0.4166667   0.4166667), wk =   0.0185185
        k(   28) = (   0.4166667  -0.4166667   1.2500000), wk =   0.0555556

     Dense  grid:    16529 G-vectors     FFT dimensions: (  36,  36,  36)

     Smooth grid:     5961 G-vectors     FFT dimensions: (  25,  25,  25)

     Estimated max dynamical RAM per process >       2.96MB

     Estimated total allocated dynamical RAM >      11.84MB

     Initial potential from superposition of free atoms

     starting charge    7.99866, renormalised to    8.00000
     Starting wfc are    8 randomized atomic wfcs

     total cpu time spent up to now is        0.8 secs

     per-process dynamical memory:    10.0 Mb

     Self-consistent Calculation

     iteration #  1     ecut=    30.00 Ry     beta=0.70
     Davidson diagonalization with overlap
     ethr =  1.00E-02,  avg # of iterations =  2.0

     Threshold (ethr) on eigenvalues was too large:
     Diagonalizing with lowered threshold

     Davidson diagonalization with overlap
     ethr =  7.25E-04,  avg # of iterations =  1.0

     total cpu time spent up to now is        1.2 secs

     total energy              =     -19.18936220 Ry
     Harris-Foulkes estimate   =     -19.20359554 Ry
     estimated scf accuracy    <       0.05742432 Ry

     iteration #  2     ecut=    30.00 Ry     beta=0.70
     Davidson diagonalization with overlap
     ethr =  7.18E-04,  avg # of iterations =  1.0

     total cpu time spent up to now is        1.4 secs

     total energy              =     -19.19144547 Ry
     Harris-Foulkes estimate   =     -19.19161156 Ry
     estimated scf accuracy    <       0.00243704 Ry

     iteration #  3     ecut=    30.00 Ry     beta=0.70
     Davidson diagonalization with overlap
     ethr =  3.05E-05,  avg # of iterations =  2.1

     total cpu time spent up to now is        1.6 secs

     total energy              =     -19.19183057 Ry
     Harris-Foulkes estimate   =     -19.19184605 Ry
     estimated scf accuracy    <       0.00004794 Ry

     iteration #  4     ecut=    30.00 Ry     beta=0.70
     Davidson diagonalization with overlap
     ethr =  5.99E-07,  avg # of iterations =  3.3

     total cpu time spent up to now is        1.9 secs

     total energy              =     -19.19187011 Ry
     Harris-Foulkes estimate   =     -19.19187135 Ry
     estimated scf accuracy    <       0.00000426 Ry

     iteration #  5     ecut=    30.00 Ry     beta=0.70
     Davidson diagonalization with overlap
     ethr =  5.33E-08,  avg # of iterations =  2.0

     total cpu time spent up to now is        2.2 secs

     total energy              =     -19.19187069 Ry
     Harris-Foulkes estimate   =     -19.19187068 Ry
     estimated scf accuracy    <       0.00000002 Ry

     iteration #  6     ecut=    30.00 Ry     beta=0.70
     Davidson diagonalization with overlap
     ethr =  2.23E-10,  avg # of iterations =  3.9

     total cpu time spent up to now is        2.9 secs

     End of self-consistent calculation

          k =-0.0833 0.0833 0.0833 (   731 PWs)   bands (ev):

    -5.5975   5.5568   6.2694   6.2694

          k =-0.2500 0.2500-0.0833 (   733 PWs)   bands (ev):

    -5.1104   3.4549   5.0030   6.0587

          k =-0.4167 0.4167-0.2500 (   743 PWs)   bands (ev):

    -3.9909   0.6325   4.5379   5.4077

          k = 0.4167-0.4167 0.5833 (   739 PWs)   bands (ev):

    -3.2684  -0.5444   4.6114   5.0165

          k = 0.2500-0.2500 0.4167 (   737 PWs)   bands (ev):

    -4.4138   1.4986   5.0736   5.1221

          k = 0.0833-0.0833 0.2500 (   726 PWs)   bands (ev):

    -5.3517   4.4848   5.6041   5.8078

          k =-0.0833 0.4167 0.0833 (   736 PWs)   bands (ev):

    -4.8641   3.2859   4.8507   4.8565

          k =-0.2500 0.5833-0.0833 (   737 PWs)   bands (ev):

    -3.9326   1.4147   3.4937   4.4629

          k = 0.5833-0.2500 0.7500 (   730 PWs)   bands (ev):

    -2.7816  -0.3911   2.8873   4.2270

          k = 0.4167-0.0833 0.5833 (   737 PWs)   bands (ev):

    -3.5270   0.7016   2.8338   4.7294

          k = 0.2500 0.0833 0.4167 (   737 PWs)   bands (ev):

    -4.6332   2.4212   4.2086   5.4202

          k =-0.0833 0.7500 0.0833 (   734 PWs)   bands (ev):

    -3.2061   0.5875   3.4522   3.8057

          k = 0.7500-0.0833 0.9167 (   734 PWs)   bands (ev):

    -1.9794  -0.7796   2.5811   3.3834

          k = 0.5833 0.0833 0.7500 (   728 PWs)   bands (ev):

    -2.3524  -0.4503   2.0881   3.9437

          k = 0.4167 0.2500 0.5833 (   734 PWs)   bands (ev):

    -3.4090  -0.0207   3.8153   4.8315

          k =-0.0833-0.9167 0.0833 (   736 PWs)   bands (ev):

    -2.0768  -0.7894   3.1756   3.5860

          k =-0.2500-0.7500-0.0833 (   735 PWs)   bands (ev):

    -3.0317   0.3565   2.9171   3.7317

          k =-0.0833-0.5833 0.0833 (   732 PWs)   bands (ev):

    -4.1437   1.9760   4.0137   4.2367

          k =-0.2500 0.2500 0.2500 (   745 PWs)   bands (ev):

    -4.8755   2.4501   5.6429   5.6429

          k =-0.4167 0.4167 0.0833 (   737 PWs)   bands (ev):

    -4.1804   1.5170   3.4576   5.4722

          k = 0.4167-0.4167 0.9167 (   731 PWs)   bands (ev):

    -2.9696   0.0563   2.3181   4.6638

          k = 0.2500-0.2500 0.7500 (   735 PWs)   bands (ev):

    -2.9176  -0.0239   2.8144   4.1684

          k =-0.2500 0.5833 0.2500 (   734 PWs)   bands (ev):

    -3.7456   0.6875   3.9486   4.5504

          k = 0.5833-0.2500 1.0833 (   732 PWs)   bands (ev):

    -2.7179  -0.0474   2.4188   3.7262

          k = 0.4167-0.0833 0.9167 (   729 PWs)   bands (ev):

    -1.8655  -0.7874   2.2410   3.0381

          k =-0.2500-1.0833 0.2500 (   727 PWs)   bands (ev):

    -2.0801  -0.6992   2.1118   3.9694

          k =-0.4167 0.4167 0.4167 (   739 PWs)   bands (ev):

    -3.6505  -0.1335   5.2490   5.2490

          k = 0.4167-0.4167 1.2500 (   737 PWs)   bands (ev):

    -3.0280  -0.4341   3.3778   4.7947

     highest occupied level (ev):     6.2694

!    total energy              =     -19.19187073 Ry
     Harris-Foulkes estimate   =     -19.19187073 Ry
     estimated scf accuracy    <          1.3E-09 Ry

     The total energy is the sum of the following terms:

     one-electron contribution =       5.27402944 Ry
     hartree contribution      =       1.09722551 Ry
     xc contribution           =      -8.64678245 Ry
     ewald contribution        =     -16.91634322 Ry

     convergence has been achieved in   6 iterations

     Writing output data file silicon.10.19.save

     init_run     :      0.37s CPU      0.68s WALL (       1 calls)
     electrons    :      1.46s CPU      2.09s WALL (       1 calls)

     Called by init_run:
     wfcinit      :      0.08s CPU      0.09s WALL (       1 calls)
     potinit      :      0.02s CPU      0.02s WALL (       1 calls)

     Called by electrons:
     c_bands      :      0.90s CPU      1.35s WALL (       7 calls)
     sum_band     :      0.31s CPU      0.39s WALL (       7 calls)
     v_of_rho     :      0.10s CPU      0.15s WALL (       7 calls)
     newd         :      0.15s CPU      0.19s WALL (       7 calls)
     mix_rho      :      0.01s CPU      0.01s WALL (       7 calls)

     Called by c_bands:
     init_us_2    :      0.05s CPU      0.06s WALL (     420 calls)
     cegterg      :      0.78s CPU      1.20s WALL (     196 calls)

     Called by sum_band:
     sum_band:bec :      0.00s CPU      0.00s WALL (     196 calls)
     addusdens    :      0.14s CPU      0.18s WALL (       7 calls)

     Called by *egterg:
     h_psi        :      0.65s CPU      0.97s WALL (     655 calls)
     s_psi        :      0.05s CPU      0.06s WALL (     655 calls)
     g_psi        :      0.00s CPU      0.00s WALL (     431 calls)
     cdiaghg      :      0.06s CPU      0.09s WALL (     599 calls)

     Called by h_psi:
     h_psi:pot    :      0.65s CPU      0.96s WALL (     655 calls)
     h_psi:calbec :      0.07s CPU      0.11s WALL (     655 calls)
     vloc_psi     :      0.52s CPU      0.80s WALL (     655 calls)
     add_vuspsi   :      0.05s CPU      0.06s WALL (     655 calls)

     General routines
     calbec       :      0.09s CPU      0.13s WALL (     851 calls)
     fft          :      0.08s CPU      0.14s WALL (     112 calls)
     ffts         :      0.01s CPU      0.01s WALL (      14 calls)
     fftw         :      0.53s CPU      0.82s WALL (    5690 calls)
     interpolate  :      0.01s CPU      0.02s WALL (      14 calls)
     davcio       :      0.00s CPU      0.00s WALL (      28 calls)

     Parallel routines
     fft_scatter  :      0.27s CPU      0.57s WALL (    5816 calls)

     PWSCF        :     2.04s CPU         3.02s WALL


   This run was terminated on:  10:28:20  10Nov2017            

=------------------------------------------------------------------------------=
   JOB DONE.
=------------------------------------------------------------------------------=
