
     Program PHONON v.6.1 (svn rev. 13369) starts on 10Nov2017 at 15:33: 7 

     This program is part of the open-source Quantum ESPRESSO suite
     for quantum simulation of materials; please cite
         "P. Giannozzi et al., J. Phys.:Condens. Matter 21 395502 (2009);
          URL http://www.quantum-espresso.org", 
     in publications or presentations arising from this work. More details at
     http://www.quantum-espresso.org/quote

     Parallel version (MPI), running on     4 processors
     R & G space division:  proc/nbgrp/npool/nimage =       4

     Reading data from directory:
     ./silicon.10.330.save

   Info: using nr1, nr2, nr3 values from input

   Info: using nr1, nr2, nr3 values from input

     IMPORTANT: XC functional enforced from input :
     Exchange-correlation      = SLA  PW   PBE  PBE ( 1  4  3  4 0 0)
     Any further DFT definition will be discarded
     Please, verify this is what you really want


     Parallelization info
     --------------------
     sticks:   dense  smooth     PW     G-vecs:    dense   smooth      PW
     Min         219     109     37                 4315     1545     284
     Max         220     110     38                 4316     1546     285
     Sum         877     439    151                17261     6183    1139



     Dynamical matrices for ( 4, 4, 4)  uniform grid of q-points
     (   8q-points):
       N         xq(1)         xq(2)         xq(3) 
       1   0.000000000   0.000000000   0.000000000
       2  -0.250000000   0.250000000  -0.250000000
       3   0.500000000  -0.500000000   0.500000000
       4   0.000000000   0.500000000   0.000000000
       5   0.750000000  -0.250000000   0.750000000
       6   0.500000000   0.000000000   0.500000000
       7   0.000000000  -1.000000000   0.000000000
       8  -0.500000000  -1.000000000   0.000000000

     Calculation of q =    0.0000000   0.0000000   0.0000000

                                                                                

     bravais-lattice index     =            2
     lattice parameter (alat)  =      10.3300  a.u.
     unit-cell volume          =     275.5757 (a.u.)^3
     number of atoms/cell      =            2
     number of atomic types    =            1
     kinetic-energy cut-off    =      30.0000  Ry
     charge density cut-off    =     240.0000  Ry
     convergence threshold     =      1.0E-12
     beta                      =       0.7000
     number of iterations used =            4
     Exchange-correlation      = SLA  PW   PBE  PBE ( 1  4  3  4 0 0)


     celldm(1)=   10.33000  celldm(2)=    0.00000  celldm(3)=    0.00000
     celldm(4)=    0.00000  celldm(5)=    0.00000  celldm(6)=    0.00000

     crystal axes: (cart. coord. in units of alat)
               a(1) = ( -0.5000  0.0000  0.5000 )  
               a(2) = (  0.0000  0.5000  0.5000 )  
               a(3) = ( -0.5000  0.5000  0.0000 )  

     reciprocal axes: (cart. coord. in units 2 pi/alat)
               b(1) = ( -1.0000 -1.0000  1.0000 )  
               b(2) = (  1.0000  1.0000  1.0000 )  
               b(3) = ( -1.0000  1.0000 -1.0000 )  


     Atoms inside the unit cell: 

     Cartesian axes

     site n.  atom      mass           positions (alat units)
        1     Si  28.0860   tau(    1) = (    0.00000    0.00000    0.00000  )
        2     Si  28.0860   tau(    2) = (    0.25000    0.25000    0.25000  )

     Computing dynamical matrix for 
                    q = (   0.0000000   0.0000000   0.0000000 )

     49 Sym.Ops. (with q -> -q+G )


     G cutoff =  648.7123  (   4315 G-vectors)     FFT grid: ( 40, 40, 40)
     G cutoff =  324.3562  (   1546 G-vectors)  smooth grid: ( 25, 25, 25)
     number of k points=    10

     PseudoPot. # 1 for Si read from file:
     /home/s1333534/quantum_espresso/qe-6.1/pseudo/si_pbe_v1.uspp.F.UPF.txt
     MD5 check sum: a056efeee980c13900f22a371efd63c1
     Pseudo is Ultrasoft + core correction, Zval =  4.0
     Generated by new atomic code, or converted to UPF format
     Using radial grid of  899 points,  6 beta functions with: 
                l(1) =   0
                l(2) =   0
                l(3) =   1
                l(4) =   1
                l(5) =   2
                l(6) =   2
     Q(r) pseudized with  8 coefficients,  rinner =    0.900   0.900   0.900
                                                       0.900   0.900

     Mode symmetry, O_h (m-3m)  point group:


     Electric field:
     Dielectric constant
     Born effective charges in two ways 


     Atomic displacements:
     There are   2 irreducible representations

     Representation     1      3 modes -T_2g G_25' G_5+  To be done

     Representation     2      3 modes -T_1u G_15  G_4-  To be done



     Alpha used in Ewald sum =   2.5000
     PHONON       :     0.98s CPU         1.92s WALL


     Electric Fields Calculation

      iter #   1 total cpu time :     3.3 secs   av.it.:   5.7
      thresh= 1.000E-02 alpha_mix =  0.700 |ddv_scf|^2 =  9.702E-08

      iter #   2 total cpu time :     4.4 secs   av.it.:  11.9
      thresh= 3.115E-05 alpha_mix =  0.700 |ddv_scf|^2 =  5.707E-09

      iter #   3 total cpu time :     5.4 secs   av.it.:  11.7
      thresh= 7.555E-06 alpha_mix =  0.700 |ddv_scf|^2 =  3.805E-10

      iter #   4 total cpu time :     6.5 secs   av.it.:  10.6
      thresh= 1.951E-06 alpha_mix =  0.700 |ddv_scf|^2 =  2.496E-12

      iter #   5 total cpu time :     7.2 secs   av.it.:  11.2
      thresh= 1.580E-07 alpha_mix =  0.700 |ddv_scf|^2 =  2.485E-15

     End of electric fields calculation

          Dielectric constant in cartesian axis 

          (      13.958942724       0.000000000       0.000000000 )
          (       0.000000000      13.958942724      -0.000000000 )
          (       0.000000000      -0.000000000      13.958942724 )

          Effective charges (d Force / dE) in cartesian axis

           atom      1   Si 
      Ex  (       -0.03857       -0.00000       -0.00000 )
      Ey  (        0.00000       -0.03857        0.00000 )
      Ez  (       -0.00000        0.00000       -0.03857 )
           atom      2   Si 
      Ex  (       -0.03857        0.00000        0.00000 )
      Ey  (        0.00000       -0.03857       -0.00000 )
      Ez  (        0.00000       -0.00000       -0.03857 )


     Representation #  1 modes #   1  2  3

     Self-consistent Calculation

      iter #   1 total cpu time :     8.8 secs   av.it.:   5.1
      thresh= 1.000E-02 alpha_mix =  0.700 |ddv_scf|^2 =  1.714E-08

      iter #   2 total cpu time :     9.6 secs   av.it.:  11.8
      thresh= 1.309E-05 alpha_mix =  0.700 |ddv_scf|^2 =  7.017E-10

      iter #   3 total cpu time :    10.5 secs   av.it.:  11.3
      thresh= 2.649E-06 alpha_mix =  0.700 |ddv_scf|^2 =  4.773E-11

      iter #   4 total cpu time :    11.1 secs   av.it.:  10.4
      thresh= 6.909E-07 alpha_mix =  0.700 |ddv_scf|^2 =  1.177E-13

     End of self-consistent calculation

     Convergence has been achieved 


     Representation #  2 modes #   4  5  6

     Self-consistent Calculation

      iter #   1 total cpu time :    12.1 secs   av.it.:   5.2
      thresh= 1.000E-02 alpha_mix =  0.700 |ddv_scf|^2 =  1.352E-08

      iter #   2 total cpu time :    12.9 secs   av.it.:  11.7
      thresh= 1.163E-05 alpha_mix =  0.700 |ddv_scf|^2 =  7.963E-10

      iter #   3 total cpu time :    13.8 secs   av.it.:  11.4
      thresh= 2.822E-06 alpha_mix =  0.700 |ddv_scf|^2 =  4.936E-11

      iter #   4 total cpu time :    14.5 secs   av.it.:  11.5
      thresh= 7.026E-07 alpha_mix =  0.700 |ddv_scf|^2 =  1.905E-13

     End of self-consistent calculation

     Convergence has been achieved 

     Number of q in the star =    1
     List of q in the star:
          1   0.000000000   0.000000000   0.000000000

          Dielectric constant in cartesian axis 

          (      13.958942724       0.000000000       0.000000000 )
          (       0.000000000      13.958942724      -0.000000000 )
          (       0.000000000      -0.000000000      13.958942724 )

          Effective charges (d Force / dE) in cartesian axis

           atom      1   Si 
      Ex  (       -0.03857       -0.00000       -0.00000 )
      Ey  (        0.00000       -0.03857        0.00000 )
      Ez  (       -0.00000        0.00000       -0.03857 )
           atom      2   Si 
      Ex  (       -0.03857        0.00000        0.00000 )
      Ey  (        0.00000       -0.03857       -0.00000 )
      Ez  (        0.00000       -0.00000       -0.03857 )

          Effective charges (d P / du) in cartesian axis 

           atom      1   Si 
      Px  (       -0.07245        0.00000        0.00000 )
      Py  (        0.00000       -0.07245        0.00000 )
      Pz  (        0.00000       -0.00000       -0.07245 )
           atom      2   Si 
      Px  (       -0.07245        0.00000       -0.00000 )
      Py  (        0.00000       -0.07245        0.00000 )
      Pz  (        0.00000        0.00000       -0.07245 )

     Diagonalizing the dynamical matrix

     q = (    0.000000000   0.000000000   0.000000000 ) 

 **************************************************************************
     freq (    1) =      -0.473526 [THz] =     -15.795122 [cm-1]
     freq (    2) =      -0.473526 [THz] =     -15.795122 [cm-1]
     freq (    3) =      -0.473526 [THz] =     -15.795122 [cm-1]
     freq (    4) =      15.082990 [THz] =     503.114390 [cm-1]
     freq (    5) =      15.082990 [THz] =     503.114390 [cm-1]
     freq (    6) =      15.082990 [THz] =     503.114390 [cm-1]
 **************************************************************************

     Mode symmetry, O_h (m-3m)  point group:

     freq (  1 -  3) =        -15.8  [cm-1]   --> T_1u G_15  G_4- I  
     freq (  4 -  6) =        503.1  [cm-1]   --> T_2g G_25' G_5+ R  

     Calculation of q =   -0.2500000   0.2500000  -0.2500000

   Info: using nr1, nr2, nr3 values from input

   Info: using nr1, nr2, nr3 values from input

     Parallelization info
     --------------------
     sticks:   dense  smooth     PW     G-vecs:    dense   smooth      PW
     Min         218     109     37                 4315     1545     309
     Max         220     110     38                 4316     1546     312
     Sum         877     439    151                17261     6183    1243



     bravais-lattice index     =            2
     lattice parameter (alat)  =      10.3300  a.u.
     unit-cell volume          =     275.5757 (a.u.)^3
     number of atoms/cell      =            2
     number of atomic types    =            1
     number of electrons       =         8.00
     number of Kohn-Sham states=            4
     kinetic-energy cutoff     =      30.0000  Ry
     charge density cutoff     =     240.0000  Ry
     Exchange-correlation      = SLA  PW   PBE  PBE ( 1  4  3  4 0 0)

     celldm(1)=  10.330000  celldm(2)=   0.000000  celldm(3)=   0.000000
     celldm(4)=   0.000000  celldm(5)=   0.000000  celldm(6)=   0.000000

     crystal axes: (cart. coord. in units of alat)
               a(1) = (  -0.500000   0.000000   0.500000 )  
               a(2) = (   0.000000   0.500000   0.500000 )  
               a(3) = (  -0.500000   0.500000   0.000000 )  

     reciprocal axes: (cart. coord. in units 2 pi/alat)
               b(1) = ( -1.000000 -1.000000  1.000000 )  
               b(2) = (  1.000000  1.000000  1.000000 )  
               b(3) = ( -1.000000  1.000000 -1.000000 )  


     PseudoPot. # 1 for Si read from file:
     /home/s1333534/quantum_espresso/qe-6.1/pseudo/si_pbe_v1.uspp.F.UPF.txt
     MD5 check sum: a056efeee980c13900f22a371efd63c1
     Pseudo is Ultrasoft + core correction, Zval =  4.0
     Generated by new atomic code, or converted to UPF format
     Using radial grid of  899 points,  6 beta functions with: 
                l(1) =   0
                l(2) =   0
                l(3) =   1
                l(4) =   1
                l(5) =   2
                l(6) =   2
     Q(r) pseudized with  8 coefficients,  rinner =    0.900   0.900   0.900
                                                       0.900   0.900

     atomic species   valence    mass     pseudopotential
        Si             4.00    28.08600     Si( 1.00)

     48 Sym. Ops., with inversion, found



   Cartesian axes

     site n.     atom                  positions (alat units)
         1           Si  tau(   1) = (   0.0000000   0.0000000   0.0000000  )
         2           Si  tau(   2) = (   0.2500000   0.2500000   0.2500000  )

     number of k points=   120

     Number of k-points >= 100: set verbosity='high' to print them.

     Dense  grid:    17261 G-vectors     FFT dimensions: (  40,  40,  40)

     Smooth grid:     6183 G-vectors     FFT dimensions: (  25,  25,  25)

     Estimated max dynamical RAM per process >       1.78MB

     Estimated total allocated dynamical RAM >       7.14MB

     The potential is recalculated from file :
     ./_ph0/silicon.10.330.save/charge-density.dat

     Starting wfc are    8 atomic wfcs

     Band Structure Calculation
     Davidson diagonalization with overlap

     ethr =  1.25E-10,  avg # of iterations = 12.2

     total cpu time spent up to now is        1.4 secs

     End of band structure calculation

     Number of k-points >= 100: set verbosity='high' to print the bands.

     highest occupied level (ev):     5.7066

     Writing output data file silicon.10.330.save

                                                                                

     bravais-lattice index     =            2
     lattice parameter (alat)  =      10.3300  a.u.
     unit-cell volume          =     275.5757 (a.u.)^3
     number of atoms/cell      =            2
     number of atomic types    =            1
     kinetic-energy cut-off    =      30.0000  Ry
     charge density cut-off    =     240.0000  Ry
     convergence threshold     =      1.0E-12
     beta                      =       0.7000
     number of iterations used =            4
     Exchange-correlation      = SLA  PW   PBE  PBE ( 1  4  3  4 0 0)


     celldm(1)=   10.33000  celldm(2)=    0.00000  celldm(3)=    0.00000
     celldm(4)=    0.00000  celldm(5)=    0.00000  celldm(6)=    0.00000

     crystal axes: (cart. coord. in units of alat)
               a(1) = ( -0.5000  0.0000  0.5000 )  
               a(2) = (  0.0000  0.5000  0.5000 )  
               a(3) = ( -0.5000  0.5000  0.0000 )  

     reciprocal axes: (cart. coord. in units 2 pi/alat)
               b(1) = ( -1.0000 -1.0000  1.0000 )  
               b(2) = (  1.0000  1.0000  1.0000 )  
               b(3) = ( -1.0000  1.0000 -1.0000 )  


     Atoms inside the unit cell: 

     Cartesian axes

     site n.  atom      mass           positions (alat units)
        1     Si  28.0860   tau(    1) = (    0.00000    0.00000    0.00000  )
        2     Si  28.0860   tau(    2) = (    0.25000    0.25000    0.25000  )

     Computing dynamical matrix for 
                    q = (  -0.2500000   0.2500000  -0.2500000 )

      6 Sym.Ops. (no q -> -q+G )


     G cutoff =  648.7123  (   4315 G-vectors)     FFT grid: ( 40, 40, 40)
     G cutoff =  324.3562  (   1546 G-vectors)  smooth grid: ( 25, 25, 25)
     number of k points=   120

     PseudoPot. # 1 for Si read from file:
     /home/s1333534/quantum_espresso/qe-6.1/pseudo/si_pbe_v1.uspp.F.UPF.txt
     MD5 check sum: a056efeee980c13900f22a371efd63c1
     Pseudo is Ultrasoft + core correction, Zval =  4.0
     Generated by new atomic code, or converted to UPF format
     Using radial grid of  899 points,  6 beta functions with: 
                l(1) =   0
                l(2) =   0
                l(3) =   1
                l(4) =   1
                l(5) =   2
                l(6) =   2
     Q(r) pseudized with  8 coefficients,  rinner =    0.900   0.900   0.900
                                                       0.900   0.900

     Mode symmetry, C_3v (3m)   point group:


     Atomic displacements:
     There are   4 irreducible representations

     Representation     1      1 modes -A_1  L_1  To be done

     Representation     2      1 modes -A_1  L_1  To be done

     Representation     3      2 modes -E    L_3  To be done

     Representation     4      2 modes -E    L_3  To be done



     Alpha used in Ewald sum =   2.5000
     PHONON       :    12.05s CPU        18.60s WALL



     Representation #  1 mode #   1

     Self-consistent Calculation

      iter #   1 total cpu time :    19.2 secs   av.it.:   5.9
      thresh= 1.000E-02 alpha_mix =  0.700 |ddv_scf|^2 =  3.110E-04

      iter #   2 total cpu time :    20.0 secs   av.it.:   9.2
      thresh= 1.764E-03 alpha_mix =  0.700 |ddv_scf|^2 =  4.738E-03

      iter #   3 total cpu time :    20.6 secs   av.it.:   7.1
      thresh= 6.883E-03 alpha_mix =  0.700 |ddv_scf|^2 =  1.958E-07

      iter #   4 total cpu time :    21.2 secs   av.it.:   9.7
      thresh= 4.425E-05 alpha_mix =  0.700 |ddv_scf|^2 =  1.284E-08

      iter #   5 total cpu time :    22.0 secs   av.it.:   9.7
      thresh= 1.133E-05 alpha_mix =  0.700 |ddv_scf|^2 =  2.403E-10

      iter #   6 total cpu time :    22.6 secs   av.it.:   9.9
      thresh= 1.550E-06 alpha_mix =  0.700 |ddv_scf|^2 =  5.793E-10

      iter #   7 total cpu time :    23.2 secs   av.it.:   7.8
      thresh= 2.407E-06 alpha_mix =  0.700 |ddv_scf|^2 =  3.700E-11

      iter #   8 total cpu time :    23.8 secs   av.it.:   9.4
      thresh= 6.083E-07 alpha_mix =  0.700 |ddv_scf|^2 =  4.017E-13

     End of self-consistent calculation

     Convergence has been achieved 


     Representation #  2 mode #   2

     Self-consistent Calculation

      iter #   1 total cpu time :    24.4 secs   av.it.:   5.9
      thresh= 1.000E-02 alpha_mix =  0.700 |ddv_scf|^2 =  3.110E-04

      iter #   2 total cpu time :    25.1 secs   av.it.:   9.2
      thresh= 1.764E-03 alpha_mix =  0.700 |ddv_scf|^2 =  4.738E-03

      iter #   3 total cpu time :    25.6 secs   av.it.:   7.1
      thresh= 6.883E-03 alpha_mix =  0.700 |ddv_scf|^2 =  1.958E-07

      iter #   4 total cpu time :    26.2 secs   av.it.:   9.7
      thresh= 4.425E-05 alpha_mix =  0.700 |ddv_scf|^2 =  1.284E-08

      iter #   5 total cpu time :    26.9 secs   av.it.:   9.7
      thresh= 1.133E-05 alpha_mix =  0.700 |ddv_scf|^2 =  2.403E-10

      iter #   6 total cpu time :    27.5 secs   av.it.:   9.9
      thresh= 1.550E-06 alpha_mix =  0.700 |ddv_scf|^2 =  5.793E-10

      iter #   7 total cpu time :    28.1 secs   av.it.:   7.8
      thresh= 2.407E-06 alpha_mix =  0.700 |ddv_scf|^2 =  3.700E-11

      iter #   8 total cpu time :    28.7 secs   av.it.:   9.4
      thresh= 6.083E-07 alpha_mix =  0.700 |ddv_scf|^2 =  4.017E-13

     End of self-consistent calculation

     Convergence has been achieved 


     Representation #  3 modes #   3  4

     Self-consistent Calculation

      iter #   1 total cpu time :    29.7 secs   av.it.:   5.2
      thresh= 1.000E-02 alpha_mix =  0.700 |ddv_scf|^2 =  4.823E-08

      iter #   2 total cpu time :    31.0 secs   av.it.:  11.6
      thresh= 2.196E-05 alpha_mix =  0.700 |ddv_scf|^2 =  3.099E-09

      iter #   3 total cpu time :    32.4 secs   av.it.:  11.2
      thresh= 5.566E-06 alpha_mix =  0.700 |ddv_scf|^2 =  1.639E-10

      iter #   4 total cpu time :    33.6 secs   av.it.:  11.1
      thresh= 1.280E-06 alpha_mix =  0.700 |ddv_scf|^2 =  6.254E-13

     End of self-consistent calculation

     Convergence has been achieved 


     Representation #  4 modes #   5  6

     Self-consistent Calculation

      iter #   1 total cpu time :    34.6 secs   av.it.:   5.2
      thresh= 1.000E-02 alpha_mix =  0.700 |ddv_scf|^2 =  4.824E-08

      iter #   2 total cpu time :    35.9 secs   av.it.:  11.7
      thresh= 2.196E-05 alpha_mix =  0.700 |ddv_scf|^2 =  3.098E-09

      iter #   3 total cpu time :    37.3 secs   av.it.:  11.4
      thresh= 5.566E-06 alpha_mix =  0.700 |ddv_scf|^2 =  1.638E-10

      iter #   4 total cpu time :    38.5 secs   av.it.:  11.2
      thresh= 1.280E-06 alpha_mix =  0.700 |ddv_scf|^2 =  6.285E-13

     End of self-consistent calculation

     Convergence has been achieved 

     Number of q in the star =    8
     List of q in the star:
          1  -0.250000000   0.250000000  -0.250000000
          2   0.250000000  -0.250000000  -0.250000000
          3   0.250000000  -0.250000000   0.250000000
          4   0.250000000   0.250000000   0.250000000
          5  -0.250000000  -0.250000000  -0.250000000
          6  -0.250000000  -0.250000000   0.250000000
          7  -0.250000000   0.250000000   0.250000000
          8   0.250000000   0.250000000  -0.250000000

     Diagonalizing the dynamical matrix

     q = (   -0.250000000   0.250000000  -0.250000000 ) 

 **************************************************************************
     freq (    1) =       2.783737 [THz] =      92.855458 [cm-1]
     freq (    2) =       2.783737 [THz] =      92.855458 [cm-1]
     freq (    3) =       6.737276 [THz] =     224.731351 [cm-1]
     freq (    4) =      14.234241 [THz] =     474.803176 [cm-1]
     freq (    5) =      14.508825 [THz] =     483.962311 [cm-1]
     freq (    6) =      14.508825 [THz] =     483.962311 [cm-1]
 **************************************************************************

     Mode symmetry, C_3v (3m)   point group:

     freq (  1 -  2) =         92.9  [cm-1]   --> E    L_3           
     freq (  3 -  3) =        224.7  [cm-1]   --> A_1  L_1           
     freq (  4 -  4) =        474.8  [cm-1]   --> A_1  L_1           
     freq (  5 -  6) =        484.0  [cm-1]   --> E    L_3           

     Calculation of q =    0.5000000  -0.5000000   0.5000000

   Info: using nr1, nr2, nr3 values from input

   Info: using nr1, nr2, nr3 values from input

     Parallelization info
     --------------------
     sticks:   dense  smooth     PW     G-vecs:    dense   smooth      PW
     Min         219     109     40                 4315     1545     351
     Max         220     110     41                 4316     1546     354
     Sum         877     439    163                17261     6183    1411



     bravais-lattice index     =            2
     lattice parameter (alat)  =      10.3300  a.u.
     unit-cell volume          =     275.5757 (a.u.)^3
     number of atoms/cell      =            2
     number of atomic types    =            1
     number of electrons       =         8.00
     number of Kohn-Sham states=            4
     kinetic-energy cutoff     =      30.0000  Ry
     charge density cutoff     =     240.0000  Ry
     Exchange-correlation      = SLA  PW   PBE  PBE ( 1  4  3  4 0 0)

     celldm(1)=  10.330000  celldm(2)=   0.000000  celldm(3)=   0.000000
     celldm(4)=   0.000000  celldm(5)=   0.000000  celldm(6)=   0.000000

     crystal axes: (cart. coord. in units of alat)
               a(1) = (  -0.500000   0.000000   0.500000 )  
               a(2) = (   0.000000   0.500000   0.500000 )  
               a(3) = (  -0.500000   0.500000   0.000000 )  

     reciprocal axes: (cart. coord. in units 2 pi/alat)
               b(1) = ( -1.000000 -1.000000  1.000000 )  
               b(2) = (  1.000000  1.000000  1.000000 )  
               b(3) = ( -1.000000  1.000000 -1.000000 )  


     PseudoPot. # 1 for Si read from file:
     /home/s1333534/quantum_espresso/qe-6.1/pseudo/si_pbe_v1.uspp.F.UPF.txt
     MD5 check sum: a056efeee980c13900f22a371efd63c1
     Pseudo is Ultrasoft + core correction, Zval =  4.0
     Generated by new atomic code, or converted to UPF format
     Using radial grid of  899 points,  6 beta functions with: 
                l(1) =   0
                l(2) =   0
                l(3) =   1
                l(4) =   1
                l(5) =   2
                l(6) =   2
     Q(r) pseudized with  8 coefficients,  rinner =    0.900   0.900   0.900
                                                       0.900   0.900

     atomic species   valence    mass     pseudopotential
        Si             4.00    28.08600     Si( 1.00)

     48 Sym. Ops., with inversion, found



   Cartesian axes

     site n.     atom                  positions (alat units)
         1           Si  tau(   1) = (   0.0000000   0.0000000   0.0000000  )
         2           Si  tau(   2) = (   0.2500000   0.2500000   0.2500000  )

     number of k points=    60
                       cart. coord. in units 2pi/alat
        k(    1) = (  -0.1250000   0.1250000   0.1250000), wk =   0.0468750
        k(    2) = (   0.3750000  -0.3750000   0.6250000), wk =   0.0000000
        k(    3) = (  -0.3750000   0.3750000  -0.1250000), wk =   0.0468750
        k(    4) = (   0.1250000  -0.1250000   0.3750000), wk =   0.0000000
        k(    5) = (   0.3750000  -0.3750000   0.6250000), wk =   0.0468750
        k(    6) = (   0.8750000  -0.8750000   1.1250000), wk =   0.0000000
        k(    7) = (   0.1250000  -0.1250000   0.3750000), wk =   0.0468750
        k(    8) = (   0.6250000  -0.6250000   0.8750000), wk =   0.0000000
        k(    9) = (  -0.1250000   0.6250000   0.1250000), wk =   0.0937500
        k(   10) = (   0.3750000   0.1250000   0.6250000), wk =   0.0000000
        k(   11) = (   0.6250000  -0.1250000   0.8750000), wk =   0.0937500
        k(   12) = (   1.1250000  -0.6250000   1.3750000), wk =   0.0000000
        k(   13) = (   0.3750000   0.1250000   0.6250000), wk =   0.0937500
        k(   14) = (   0.8750000  -0.3750000   1.1250000), wk =   0.0000000
        k(   15) = (  -0.1250000  -0.8750000   0.1250000), wk =   0.0937500
        k(   16) = (   0.3750000  -1.3750000   0.6250000), wk =   0.0000000
        k(   17) = (  -0.3750000   0.3750000   0.3750000), wk =   0.0468750
        k(   18) = (   0.1250000  -0.1250000   0.8750000), wk =   0.0000000
        k(   19) = (   0.3750000  -0.3750000   1.1250000), wk =   0.0468750
        k(   20) = (   0.8750000  -0.8750000   1.6250000), wk =   0.0000000
        k(   21) = (   0.1250000  -0.1250000   0.1250000), wk =   0.0156250
        k(   22) = (   0.6250000  -0.6250000   0.6250000), wk =   0.0000000
        k(   23) = (  -0.3750000  -0.3750000  -0.1250000), wk =   0.0937500
        k(   24) = (   0.1250000  -0.8750000   0.3750000), wk =   0.0000000
        k(   25) = (  -0.1250000  -0.3750000   0.3750000), wk =   0.0468750
        k(   26) = (   0.3750000  -0.8750000   0.8750000), wk =   0.0000000
        k(   27) = (   0.3750000   0.3750000   0.6250000), wk =   0.0937500
        k(   28) = (   0.8750000  -0.1250000   1.1250000), wk =   0.0000000
        k(   29) = (   0.6250000   0.3750000  -0.3750000), wk =   0.0468750
        k(   30) = (   1.1250000  -0.1250000   0.1250000), wk =   0.0000000
        k(   31) = (   0.1250000   0.1250000   0.3750000), wk =   0.0937500
        k(   32) = (   0.6250000  -0.3750000   0.8750000), wk =   0.0000000
        k(   33) = (   0.3750000   0.1250000  -0.1250000), wk =   0.0468750
        k(   34) = (   0.8750000  -0.3750000   0.3750000), wk =   0.0000000
        k(   35) = (  -0.1250000  -0.6250000  -0.1250000), wk =   0.0468750
        k(   36) = (   0.3750000  -1.1250000   0.3750000), wk =   0.0000000
        k(   37) = (   0.1250000  -0.6250000   0.1250000), wk =   0.0468750
        k(   38) = (   0.6250000  -1.1250000   0.6250000), wk =   0.0000000
        k(   39) = (   0.6250000   0.1250000   0.8750000), wk =   0.0937500
        k(   40) = (   1.1250000  -0.3750000   1.3750000), wk =   0.0000000
        k(   41) = (  -0.8750000   0.1250000   0.6250000), wk =   0.0937500
        k(   42) = (  -0.3750000  -0.3750000   1.1250000), wk =   0.0000000
        k(   43) = (   0.8750000   0.1250000  -0.6250000), wk =   0.0937500
        k(   44) = (   1.3750000  -0.3750000  -0.1250000), wk =   0.0000000
        k(   45) = (   0.3750000  -0.1250000   0.6250000), wk =   0.0937500
        k(   46) = (   0.8750000  -0.6250000   1.1250000), wk =   0.0000000
        k(   47) = (  -0.6250000  -0.1250000   0.3750000), wk =   0.0937500
        k(   48) = (  -0.1250000  -0.6250000   0.8750000), wk =   0.0000000
        k(   49) = (   0.6250000  -0.1250000  -0.3750000), wk =   0.0937500
        k(   50) = (   1.1250000  -0.6250000   0.1250000), wk =   0.0000000
        k(   51) = (  -0.1250000   0.8750000  -0.1250000), wk =   0.0468750
        k(   52) = (   0.3750000   0.3750000   0.3750000), wk =   0.0000000
        k(   53) = (   0.1250000   0.8750000   0.1250000), wk =   0.0468750
        k(   54) = (   0.6250000   0.3750000   0.6250000), wk =   0.0000000
        k(   55) = (   0.3750000  -0.3750000   0.3750000), wk =   0.0156250
        k(   56) = (   0.8750000  -0.8750000   0.8750000), wk =   0.0000000
        k(   57) = (   0.3750000   0.3750000   1.1250000), wk =   0.0937500
        k(   58) = (   0.8750000  -0.1250000   1.6250000), wk =   0.0000000
        k(   59) = (   1.1250000   0.3750000  -0.3750000), wk =   0.0468750
        k(   60) = (   1.6250000  -0.1250000   0.1250000), wk =   0.0000000

     Dense  grid:    17261 G-vectors     FFT dimensions: (  40,  40,  40)

     Smooth grid:     6183 G-vectors     FFT dimensions: (  25,  25,  25)

     Estimated max dynamical RAM per process >       1.78MB

     Estimated total allocated dynamical RAM >       7.14MB

     The potential is recalculated from file :
     ./_ph0/silicon.10.330.save/charge-density.dat

     Starting wfc are    8 atomic wfcs

     Band Structure Calculation
     Davidson diagonalization with overlap

     ethr =  1.25E-10,  avg # of iterations = 12.2

     total cpu time spent up to now is        2.7 secs

     End of band structure calculation

          k =-0.1250 0.1250 0.1250 (   770 PWs)   bands (ev):

    -5.6341   4.3974   5.7066   5.7066

          k = 0.3750-0.3750 0.6250 (   763 PWs)   bands (ev):

    -3.4668  -0.6751   3.7409   4.4545

          k =-0.3750 0.3750-0.1250 (   773 PWs)   bands (ev):

    -4.6071   1.4040   3.7198   5.2263

          k = 0.1250-0.1250 0.3750 (   768 PWs)   bands (ev):

    -5.1061   2.7811   4.6982   4.7626

          k = 0.3750-0.3750 0.6250 (   763 PWs)   bands (ev):

    -3.4668  -0.6751   3.7409   4.4545

          k = 0.8750-0.8750 1.1250 (   770 PWs)   bands (ev):

    -5.6341   4.3974   5.7066   5.7066

          k = 0.1250-0.1250 0.3750 (   768 PWs)   bands (ev):

    -5.1061   2.7811   4.6982   4.7626

          k = 0.6250-0.6250 0.8750 (   773 PWs)   bands (ev):

    -4.6071   1.4040   3.7198   5.2263

          k =-0.1250 0.6250 0.1250 (   766 PWs)   bands (ev):

    -4.0743   1.0706   3.3709   3.8239

          k = 0.3750 0.1250 0.6250 (   768 PWs)   bands (ev):

    -3.6585   0.1968   2.7290   4.0986

          k = 0.6250-0.1250 0.8750 (   755 PWs)   bands (ev):

    -2.4337  -0.8918   2.0158   3.0929

          k = 1.1250-0.6250 1.3750 (   773 PWs)   bands (ev):

    -4.6071   1.4040   3.7198   5.2263

          k = 0.3750 0.1250 0.6250 (   768 PWs)   bands (ev):

    -3.6585   0.1968   2.7290   4.0986

          k = 0.8750-0.3750 1.1250 (   766 PWs)   bands (ev):

    -4.0743   1.0706   3.3709   3.8239

          k =-0.1250-0.8750 0.1250 (   762 PWs)   bands (ev):

    -2.6017  -0.7943   2.6260   3.3568

          k = 0.3750-1.3750 0.6250 (   763 PWs)   bands (ev):

    -3.4668  -0.6751   3.7409   4.4545

          k =-0.3750 0.3750 0.3750 (   763 PWs)   bands (ev):

    -4.1739   0.1131   4.9193   4.9193

          k = 0.1250-0.1250 0.8750 (   762 PWs)   bands (ev):

    -2.6017  -0.7943   2.6260   3.3568

          k = 0.3750-0.3750 1.1250 (   767 PWs)   bands (ev):

    -2.9709  -0.5897   2.0743   4.1374

          k = 0.8750-0.8750 1.6250 (   766 PWs)   bands (ev):

    -4.0743   1.0706   3.3709   3.8239

          k = 0.1250-0.1250 0.1250 (   770 PWs)   bands (ev):

    -5.6341   4.3974   5.7066   5.7066

          k = 0.6250-0.6250 0.6250 (   763 PWs)   bands (ev):

    -4.1739   0.1131   4.9193   4.9193

          k =-0.3750-0.3750-0.1250 (   773 PWs)   bands (ev):

    -4.6071   1.4040   3.7198   5.2263

          k = 0.1250-0.8750 0.3750 (   755 PWs)   bands (ev):

    -2.4337  -0.8918   2.0158   3.0929

          k =-0.1250-0.3750 0.3750 (   773 PWs)   bands (ev):

    -4.6071   1.4040   3.7198   5.2263

          k = 0.3750-0.8750 0.8750 (   766 PWs)   bands (ev):

    -4.0743   1.0706   3.3709   3.8239

          k = 0.3750 0.3750 0.6250 (   763 PWs)   bands (ev):

    -3.4668  -0.6751   3.7409   4.4545

          k = 0.8750-0.1250 1.1250 (   762 PWs)   bands (ev):

    -2.6017  -0.7943   2.6260   3.3568

          k = 0.6250 0.3750-0.3750 (   763 PWs)   bands (ev):

    -3.4668  -0.6751   3.7409   4.4545

          k = 1.1250-0.1250 0.1250 (   762 PWs)   bands (ev):

    -2.6017  -0.7943   2.6260   3.3568

          k = 0.1250 0.1250 0.3750 (   768 PWs)   bands (ev):

    -5.1061   2.7811   4.6982   4.7626

          k = 0.6250-0.3750 0.8750 (   768 PWs)   bands (ev):

    -3.6585   0.1968   2.7290   4.0986

          k = 0.3750 0.1250-0.1250 (   768 PWs)   bands (ev):

    -5.1061   2.7811   4.6982   4.7626

          k = 0.8750-0.3750 0.3750 (   767 PWs)   bands (ev):

    -2.9709  -0.5897   2.0743   4.1374

          k =-0.1250-0.6250-0.1250 (   766 PWs)   bands (ev):

    -4.0743   1.0706   3.3709   3.8239

          k = 0.3750-1.1250 0.3750 (   767 PWs)   bands (ev):

    -2.9709  -0.5897   2.0743   4.1374

          k = 0.1250-0.6250 0.1250 (   766 PWs)   bands (ev):

    -4.0743   1.0706   3.3709   3.8239

          k = 0.6250-1.1250 0.6250 (   773 PWs)   bands (ev):

    -4.6071   1.4040   3.7198   5.2263

          k = 0.6250 0.1250 0.8750 (   755 PWs)   bands (ev):

    -2.4337  -0.8918   2.0158   3.0929

          k = 1.1250-0.3750 1.3750 (   768 PWs)   bands (ev):

    -3.6585   0.1968   2.7290   4.0986

          k =-0.8750 0.1250 0.6250 (   755 PWs)   bands (ev):

    -2.4337  -0.8918   2.0158   3.0929

          k =-0.3750-0.3750 1.1250 (   767 PWs)   bands (ev):

    -2.9709  -0.5897   2.0743   4.1374

          k = 0.8750 0.1250-0.6250 (   755 PWs)   bands (ev):

    -2.4337  -0.8918   2.0158   3.0929

          k = 1.3750-0.3750-0.1250 (   768 PWs)   bands (ev):

    -3.6585   0.1968   2.7290   4.0986

          k = 0.3750-0.1250 0.6250 (   768 PWs)   bands (ev):

    -3.6585   0.1968   2.7290   4.0986

          k = 0.8750-0.6250 1.1250 (   768 PWs)   bands (ev):

    -5.1061   2.7811   4.6982   4.7626

          k =-0.6250-0.1250 0.3750 (   768 PWs)   bands (ev):

    -3.6585   0.1968   2.7290   4.0986

          k =-0.1250-0.6250 0.8750 (   755 PWs)   bands (ev):

    -2.4337  -0.8918   2.0158   3.0929

          k = 0.6250-0.1250-0.3750 (   768 PWs)   bands (ev):

    -3.6585   0.1968   2.7290   4.0986

          k = 1.1250-0.6250 0.1250 (   755 PWs)   bands (ev):

    -2.4337  -0.8918   2.0158   3.0929

          k =-0.1250 0.8750-0.1250 (   762 PWs)   bands (ev):

    -2.6017  -0.7943   2.6260   3.3568

          k = 0.3750 0.3750 0.3750 (   763 PWs)   bands (ev):

    -4.1739   0.1131   4.9193   4.9193

          k = 0.1250 0.8750 0.1250 (   762 PWs)   bands (ev):

    -2.6017  -0.7943   2.6260   3.3568

          k = 0.6250 0.3750 0.6250 (   763 PWs)   bands (ev):

    -3.4668  -0.6751   3.7409   4.4545

          k = 0.3750-0.3750 0.3750 (   763 PWs)   bands (ev):

    -4.1739   0.1131   4.9193   4.9193

          k = 0.8750-0.8750 0.8750 (   770 PWs)   bands (ev):

    -5.6341   4.3974   5.7066   5.7066

          k = 0.3750 0.3750 1.1250 (   767 PWs)   bands (ev):

    -2.9709  -0.5897   2.0743   4.1374

          k = 0.8750-0.1250 1.6250 (   755 PWs)   bands (ev):

    -2.4337  -0.8918   2.0158   3.0929

          k = 1.1250 0.3750-0.3750 (   767 PWs)   bands (ev):

    -2.9709  -0.5897   2.0743   4.1374

          k = 1.6250-0.1250 0.1250 (   768 PWs)   bands (ev):

    -5.1061   2.7811   4.6982   4.7626

     highest occupied level (ev):     5.7066

     Writing output data file silicon.10.330.save

                                                                                

     bravais-lattice index     =            2
     lattice parameter (alat)  =      10.3300  a.u.
     unit-cell volume          =     275.5757 (a.u.)^3
     number of atoms/cell      =            2
     number of atomic types    =            1
     kinetic-energy cut-off    =      30.0000  Ry
     charge density cut-off    =     240.0000  Ry
     convergence threshold     =      1.0E-12
     beta                      =       0.7000
     number of iterations used =            4
     Exchange-correlation      = SLA  PW   PBE  PBE ( 1  4  3  4 0 0)


     celldm(1)=   10.33000  celldm(2)=    0.00000  celldm(3)=    0.00000
     celldm(4)=    0.00000  celldm(5)=    0.00000  celldm(6)=    0.00000

     crystal axes: (cart. coord. in units of alat)
               a(1) = ( -0.5000  0.0000  0.5000 )  
               a(2) = (  0.0000  0.5000  0.5000 )  
               a(3) = ( -0.5000  0.5000  0.0000 )  

     reciprocal axes: (cart. coord. in units 2 pi/alat)
               b(1) = ( -1.0000 -1.0000  1.0000 )  
               b(2) = (  1.0000  1.0000  1.0000 )  
               b(3) = ( -1.0000  1.0000 -1.0000 )  


     Atoms inside the unit cell: 

     Cartesian axes

     site n.  atom      mass           positions (alat units)
        1     Si  28.0860   tau(    1) = (    0.00000    0.00000    0.00000  )
        2     Si  28.0860   tau(    2) = (    0.25000    0.25000    0.25000  )

     Computing dynamical matrix for 
                    q = (   0.5000000  -0.5000000   0.5000000 )

     13 Sym.Ops. (with q -> -q+G )


     G cutoff =  648.7123  (   4316 G-vectors)     FFT grid: ( 40, 40, 40)
     G cutoff =  324.3562  (   1546 G-vectors)  smooth grid: ( 25, 25, 25)
     number of k points=    60

     PseudoPot. # 1 for Si read from file:
     /home/s1333534/quantum_espresso/qe-6.1/pseudo/si_pbe_v1.uspp.F.UPF.txt
     MD5 check sum: a056efeee980c13900f22a371efd63c1
     Pseudo is Ultrasoft + core correction, Zval =  4.0
     Generated by new atomic code, or converted to UPF format
     Using radial grid of  899 points,  6 beta functions with: 
                l(1) =   0
                l(2) =   0
                l(3) =   1
                l(4) =   1
                l(5) =   2
                l(6) =   2
     Q(r) pseudized with  8 coefficients,  rinner =    0.900   0.900   0.900
                                                       0.900   0.900


     Atomic displacements:
     There are   4 irreducible representations

     Representation     1      1 modes -  To be done

     Representation     2      1 modes -  To be done

     Representation     3      2 modes -  To be done

     Representation     4      2 modes -  To be done



     Alpha used in Ewald sum =   2.5000
     PHONON       :    29.71s CPU        41.00s WALL



     Representation #  1 mode #   1

     Self-consistent Calculation

      iter #   1 total cpu time :    41.3 secs   av.it.:   5.1
      thresh= 1.000E-02 alpha_mix =  0.700 |ddv_scf|^2 =  3.051E-06

      iter #   2 total cpu time :    41.7 secs   av.it.:  10.1
      thresh= 1.747E-04 alpha_mix =  0.700 |ddv_scf|^2 =  2.798E-06

      iter #   3 total cpu time :    42.1 secs   av.it.:   9.4
      thresh= 1.673E-04 alpha_mix =  0.700 |ddv_scf|^2 =  1.677E-09

      iter #   4 total cpu time :    42.6 secs   av.it.:   9.6
      thresh= 4.096E-06 alpha_mix =  0.700 |ddv_scf|^2 =  1.613E-11

      iter #   5 total cpu time :    43.0 secs   av.it.:   9.5
      thresh= 4.016E-07 alpha_mix =  0.700 |ddv_scf|^2 =  2.243E-13

     End of self-consistent calculation

     Convergence has been achieved 


     Representation #  2 mode #   2

     Self-consistent Calculation

      iter #   1 total cpu time :    43.4 secs   av.it.:   6.0
      thresh= 1.000E-02 alpha_mix =  0.700 |ddv_scf|^2 =  4.339E-05

      iter #   2 total cpu time :    43.9 secs   av.it.:  10.0
      thresh= 6.587E-04 alpha_mix =  0.700 |ddv_scf|^2 =  1.350E-04

      iter #   3 total cpu time :    44.3 secs   av.it.:   8.9
      thresh= 1.162E-03 alpha_mix =  0.700 |ddv_scf|^2 =  9.746E-09

      iter #   4 total cpu time :    44.8 secs   av.it.:  10.1
      thresh= 9.872E-06 alpha_mix =  0.700 |ddv_scf|^2 =  4.952E-10

      iter #   5 total cpu time :    45.2 secs   av.it.:  10.4
      thresh= 2.225E-06 alpha_mix =  0.700 |ddv_scf|^2 =  1.493E-11

      iter #   6 total cpu time :    45.6 secs   av.it.:   9.9
      thresh= 3.864E-07 alpha_mix =  0.700 |ddv_scf|^2 =  1.109E-13

     End of self-consistent calculation

     Convergence has been achieved 


     Representation #  3 modes #   3  4

     Self-consistent Calculation

      iter #   1 total cpu time :    46.5 secs   av.it.:   5.1
      thresh= 1.000E-02 alpha_mix =  0.700 |ddv_scf|^2 =  1.961E-08

      iter #   2 total cpu time :    47.8 secs   av.it.:  11.1
      thresh= 1.400E-05 alpha_mix =  0.700 |ddv_scf|^2 =  1.156E-09

      iter #   3 total cpu time :    48.6 secs   av.it.:  10.8
      thresh= 3.399E-06 alpha_mix =  0.700 |ddv_scf|^2 =  3.869E-11

      iter #   4 total cpu time :    49.3 secs   av.it.:  10.8
      thresh= 6.220E-07 alpha_mix =  0.700 |ddv_scf|^2 =  3.154E-13

     End of self-consistent calculation

     Convergence has been achieved 


     Representation #  4 modes #   5  6

     Self-consistent Calculation

      iter #   1 total cpu time :    50.2 secs   av.it.:   5.2
      thresh= 1.000E-02 alpha_mix =  0.700 |ddv_scf|^2 =  1.005E-07

      iter #   2 total cpu time :    51.0 secs   av.it.:  11.2
      thresh= 3.170E-05 alpha_mix =  0.700 |ddv_scf|^2 =  8.060E-09

      iter #   3 total cpu time :    51.8 secs   av.it.:  11.2
      thresh= 8.978E-06 alpha_mix =  0.700 |ddv_scf|^2 =  2.120E-10

      iter #   4 total cpu time :    52.5 secs   av.it.:  10.1
      thresh= 1.456E-06 alpha_mix =  0.700 |ddv_scf|^2 =  3.837E-13

     End of self-consistent calculation

     Convergence has been achieved 

     Number of q in the star =    4
     List of q in the star:
          1   0.500000000  -0.500000000   0.500000000
          2   0.500000000   0.500000000   0.500000000
          3  -0.500000000   0.500000000   0.500000000
          4   0.500000000   0.500000000  -0.500000000

     Diagonalizing the dynamical matrix

     q = (    0.500000000  -0.500000000   0.500000000 ) 

 **************************************************************************
     freq (    1) =       3.297077 [THz] =     109.978656 [cm-1]
     freq (    2) =       3.297077 [THz] =     109.978656 [cm-1]
     freq (    3) =      11.101110 [THz] =     370.293174 [cm-1]
     freq (    4) =      11.985937 [THz] =     399.807814 [cm-1]
     freq (    5) =      14.299222 [THz] =     476.970705 [cm-1]
     freq (    6) =      14.299222 [THz] =     476.970705 [cm-1]
 **************************************************************************

     Calculation of q =    0.0000000   0.5000000   0.0000000

   Info: using nr1, nr2, nr3 values from input

   Info: using nr1, nr2, nr3 values from input

     Parallelization info
     --------------------
     sticks:   dense  smooth     PW     G-vecs:    dense   smooth      PW
     Min         218     109     37                 4315     1545     309
     Max         220     110     38                 4316     1546     312
     Sum         877     439    151                17261     6183    1243



     bravais-lattice index     =            2
     lattice parameter (alat)  =      10.3300  a.u.
     unit-cell volume          =     275.5757 (a.u.)^3
     number of atoms/cell      =            2
     number of atomic types    =            1
     number of electrons       =         8.00
     number of Kohn-Sham states=            4
     kinetic-energy cutoff     =      30.0000  Ry
     charge density cutoff     =     240.0000  Ry
     Exchange-correlation      = SLA  PW   PBE  PBE ( 1  4  3  4 0 0)

     celldm(1)=  10.330000  celldm(2)=   0.000000  celldm(3)=   0.000000
     celldm(4)=   0.000000  celldm(5)=   0.000000  celldm(6)=   0.000000

     crystal axes: (cart. coord. in units of alat)
               a(1) = (  -0.500000   0.000000   0.500000 )  
               a(2) = (   0.000000   0.500000   0.500000 )  
               a(3) = (  -0.500000   0.500000   0.000000 )  

     reciprocal axes: (cart. coord. in units 2 pi/alat)
               b(1) = ( -1.000000 -1.000000  1.000000 )  
               b(2) = (  1.000000  1.000000  1.000000 )  
               b(3) = ( -1.000000  1.000000 -1.000000 )  


     PseudoPot. # 1 for Si read from file:
     /home/s1333534/quantum_espresso/qe-6.1/pseudo/si_pbe_v1.uspp.F.UPF.txt
     MD5 check sum: a056efeee980c13900f22a371efd63c1
     Pseudo is Ultrasoft + core correction, Zval =  4.0
     Generated by new atomic code, or converted to UPF format
     Using radial grid of  899 points,  6 beta functions with: 
                l(1) =   0
                l(2) =   0
                l(3) =   1
                l(4) =   1
                l(5) =   2
                l(6) =   2
     Q(r) pseudized with  8 coefficients,  rinner =    0.900   0.900   0.900
                                                       0.900   0.900

     atomic species   valence    mass     pseudopotential
        Si             4.00    28.08600     Si( 1.00)

     48 Sym. Ops., with inversion, found



   Cartesian axes

     site n.     atom                  positions (alat units)
         1           Si  tau(   1) = (   0.0000000   0.0000000   0.0000000  )
         2           Si  tau(   2) = (   0.2500000   0.2500000   0.2500000  )

     number of k points=    80
                       cart. coord. in units 2pi/alat
        k(    1) = (  -0.1250000   0.1250000   0.1250000), wk =   0.0312500
        k(    2) = (  -0.1250000   0.6250000   0.1250000), wk =   0.0000000
        k(    3) = (  -0.3750000   0.3750000  -0.1250000), wk =   0.0625000
        k(    4) = (  -0.3750000   0.8750000  -0.1250000), wk =   0.0000000
        k(    5) = (   0.3750000  -0.3750000   0.6250000), wk =   0.0625000
        k(    6) = (   0.3750000   0.1250000   0.6250000), wk =   0.0000000
        k(    7) = (   0.1250000  -0.1250000   0.3750000), wk =   0.0625000
        k(    8) = (   0.1250000   0.3750000   0.3750000), wk =   0.0000000
        k(    9) = (  -0.1250000   0.6250000   0.1250000), wk =   0.0312500
        k(   10) = (  -0.1250000   1.1250000   0.1250000), wk =   0.0000000
        k(   11) = (   0.6250000  -0.1250000   0.8750000), wk =   0.0625000
        k(   12) = (   0.6250000   0.3750000   0.8750000), wk =   0.0000000
        k(   13) = (   0.3750000   0.1250000   0.6250000), wk =   0.0625000
        k(   14) = (   0.3750000   0.6250000   0.6250000), wk =   0.0000000
        k(   15) = (  -0.1250000  -0.8750000   0.1250000), wk =   0.0312500
        k(   16) = (  -0.1250000  -0.3750000   0.1250000), wk =   0.0000000
        k(   17) = (  -0.3750000   0.3750000   0.3750000), wk =   0.0312500
        k(   18) = (  -0.3750000   0.8750000   0.3750000), wk =   0.0000000
        k(   19) = (   0.3750000  -0.3750000   1.1250000), wk =   0.0625000
        k(   20) = (   0.3750000   0.1250000   1.1250000), wk =   0.0000000
        k(   21) = (  -0.1250000  -0.1250000   0.1250000), wk =   0.0312500
        k(   22) = (  -0.1250000   0.3750000   0.1250000), wk =   0.0000000
        k(   23) = (   0.1250000  -0.3750000   0.3750000), wk =   0.0625000
        k(   24) = (   0.1250000   0.1250000   0.3750000), wk =   0.0000000
        k(   25) = (   0.3750000  -0.1250000   0.3750000), wk =   0.0312500
        k(   26) = (   0.3750000   0.3750000   0.3750000), wk =   0.0000000
        k(   27) = (   0.3750000   0.1250000   0.3750000), wk =   0.0312500
        k(   28) = (   0.3750000   0.6250000   0.3750000), wk =   0.0000000
        k(   29) = (  -0.6250000   0.3750000  -0.3750000), wk =   0.0625000
        k(   30) = (  -0.6250000   0.8750000  -0.3750000), wk =   0.0000000
        k(   31) = (  -0.3750000   0.6250000  -0.3750000), wk =   0.0312500
        k(   32) = (  -0.3750000   1.1250000  -0.3750000), wk =   0.0000000
        k(   33) = (  -0.3750000  -0.6250000  -0.3750000), wk =   0.0312500
        k(   34) = (  -0.3750000  -0.1250000  -0.3750000), wk =   0.0000000
        k(   35) = (  -0.3750000   0.1250000  -0.1250000), wk =   0.0625000
        k(   36) = (  -0.3750000   0.6250000  -0.1250000), wk =   0.0000000
        k(   37) = (  -0.1250000   0.3750000  -0.1250000), wk =   0.0312500
        k(   38) = (  -0.1250000   0.8750000  -0.1250000), wk =   0.0000000
        k(   39) = (  -0.1250000  -0.3750000  -0.1250000), wk =   0.0312500
        k(   40) = (  -0.1250000   0.1250000  -0.1250000), wk =   0.0000000
        k(   41) = (  -0.1250000  -0.6250000   0.1250000), wk =   0.0312500
        k(   42) = (  -0.1250000  -0.1250000   0.1250000), wk =   0.0000000
        k(   43) = (   0.6250000  -0.1250000  -0.1250000), wk =   0.0625000
        k(   44) = (   0.6250000   0.3750000  -0.1250000), wk =   0.0000000
        k(   45) = (   0.6250000   0.1250000   0.1250000), wk =   0.0625000
        k(   46) = (   0.6250000   0.6250000   0.1250000), wk =   0.0000000
        k(   47) = (  -0.8750000   0.1250000  -0.6250000), wk =   0.0625000
        k(   48) = (  -0.8750000   0.6250000  -0.6250000), wk =   0.0000000
        k(   49) = (  -0.1250000   0.6250000  -0.8750000), wk =   0.0625000
        k(   50) = (  -0.1250000   1.1250000  -0.8750000), wk =   0.0000000
        k(   51) = (  -0.1250000   0.8750000  -0.6250000), wk =   0.0625000
        k(   52) = (  -0.1250000   1.3750000  -0.6250000), wk =   0.0000000
        k(   53) = (  -0.1250000  -0.8750000  -0.6250000), wk =   0.0625000
        k(   54) = (  -0.1250000  -0.3750000  -0.6250000), wk =   0.0000000
        k(   55) = (   0.8750000  -0.6250000   0.1250000), wk =   0.0625000
        k(   56) = (   0.8750000  -0.1250000   0.1250000), wk =   0.0000000
        k(   57) = (  -0.6250000  -0.1250000  -0.3750000), wk =   0.0625000
        k(   58) = (  -0.6250000   0.3750000  -0.3750000), wk =   0.0000000
        k(   59) = (   0.1250000   0.3750000  -0.6250000), wk =   0.0625000
        k(   60) = (   0.1250000   0.8750000  -0.6250000), wk =   0.0000000
        k(   61) = (   0.1250000   0.6250000  -0.3750000), wk =   0.0625000
        k(   62) = (   0.1250000   1.1250000  -0.3750000), wk =   0.0000000
        k(   63) = (   0.1250000  -0.6250000  -0.3750000), wk =   0.0625000
        k(   64) = (   0.1250000  -0.1250000  -0.3750000), wk =   0.0000000
        k(   65) = (   0.6250000  -0.3750000  -0.1250000), wk =   0.0625000
        k(   66) = (   0.6250000   0.1250000  -0.1250000), wk =   0.0000000
        k(   67) = (  -0.1250000   0.8750000   0.1250000), wk =   0.0312500
        k(   68) = (  -0.1250000   1.3750000   0.1250000), wk =   0.0000000
        k(   69) = (  -0.8750000  -0.1250000  -0.1250000), wk =   0.0625000
        k(   70) = (  -0.8750000   0.3750000  -0.1250000), wk =   0.0000000
        k(   71) = (  -0.8750000   0.1250000   0.1250000), wk =   0.0625000
        k(   72) = (  -0.8750000   0.6250000   0.1250000), wk =   0.0000000
        k(   73) = (  -0.3750000  -0.3750000   0.3750000), wk =   0.0312500
        k(   74) = (  -0.3750000   0.1250000   0.3750000), wk =   0.0000000
        k(   75) = (  -1.1250000   0.3750000  -0.3750000), wk =   0.0625000
        k(   76) = (  -1.1250000   0.8750000  -0.3750000), wk =   0.0000000
        k(   77) = (  -0.3750000   1.1250000  -0.3750000), wk =   0.0312500
        k(   78) = (  -0.3750000   1.6250000  -0.3750000), wk =   0.0000000
        k(   79) = (  -0.3750000  -1.1250000  -0.3750000), wk =   0.0312500
        k(   80) = (  -0.3750000  -0.6250000  -0.3750000), wk =   0.0000000

     Dense  grid:    17261 G-vectors     FFT dimensions: (  40,  40,  40)

     Smooth grid:     6183 G-vectors     FFT dimensions: (  25,  25,  25)

     Estimated max dynamical RAM per process >       1.78MB

     Estimated total allocated dynamical RAM >       7.14MB

     The potential is recalculated from file :
     ./_ph0/silicon.10.330.save/charge-density.dat

     Starting wfc are    8 atomic wfcs

     Band Structure Calculation
     Davidson diagonalization with overlap

     ethr =  1.25E-10,  avg # of iterations = 12.2

     total cpu time spent up to now is        3.9 secs

     End of band structure calculation

          k =-0.1250 0.1250 0.1250 (   770 PWs)   bands (ev):

    -5.6341   4.3974   5.7066   5.7066

          k =-0.1250 0.6250 0.1250 (   766 PWs)   bands (ev):

    -4.0743   1.0706   3.3709   3.8239

          k =-0.3750 0.3750-0.1250 (   773 PWs)   bands (ev):

    -4.6071   1.4040   3.7198   5.2263

          k =-0.3750 0.8750-0.1250 (   755 PWs)   bands (ev):

    -2.4337  -0.8918   2.0158   3.0929

          k = 0.3750-0.3750 0.6250 (   763 PWs)   bands (ev):

    -3.4668  -0.6751   3.7409   4.4545

          k = 0.3750 0.1250 0.6250 (   768 PWs)   bands (ev):

    -3.6585   0.1968   2.7290   4.0986

          k = 0.1250-0.1250 0.3750 (   768 PWs)   bands (ev):

    -5.1061   2.7811   4.6982   4.7626

          k = 0.1250 0.3750 0.3750 (   773 PWs)   bands (ev):

    -4.6071   1.4040   3.7198   5.2263

          k =-0.1250 0.6250 0.1250 (   766 PWs)   bands (ev):

    -4.0743   1.0706   3.3709   3.8239

          k =-0.1250 1.1250 0.1250 (   762 PWs)   bands (ev):

    -2.6017  -0.7943   2.6260   3.3568

          k = 0.6250-0.1250 0.8750 (   755 PWs)   bands (ev):

    -2.4337  -0.8918   2.0158   3.0929

          k = 0.6250 0.3750 0.8750 (   768 PWs)   bands (ev):

    -3.6585   0.1968   2.7290   4.0986

          k = 0.3750 0.1250 0.6250 (   768 PWs)   bands (ev):

    -3.6585   0.1968   2.7290   4.0986

          k = 0.3750 0.6250 0.6250 (   763 PWs)   bands (ev):

    -3.4668  -0.6751   3.7409   4.4545

          k =-0.1250-0.8750 0.1250 (   762 PWs)   bands (ev):

    -2.6017  -0.7943   2.6260   3.3568

          k =-0.1250-0.3750 0.1250 (   768 PWs)   bands (ev):

    -5.1061   2.7811   4.6982   4.7626

          k =-0.3750 0.3750 0.3750 (   763 PWs)   bands (ev):

    -4.1739   0.1131   4.9193   4.9193

          k =-0.3750 0.8750 0.3750 (   767 PWs)   bands (ev):

    -2.9709  -0.5897   2.0743   4.1374

          k = 0.3750-0.3750 1.1250 (   767 PWs)   bands (ev):

    -2.9709  -0.5897   2.0743   4.1374

          k = 0.3750 0.1250 1.1250 (   755 PWs)   bands (ev):

    -2.4337  -0.8918   2.0158   3.0929

          k =-0.1250-0.1250 0.1250 (   770 PWs)   bands (ev):

    -5.6341   4.3974   5.7066   5.7066

          k =-0.1250 0.3750 0.1250 (   768 PWs)   bands (ev):

    -5.1061   2.7811   4.6982   4.7626

          k = 0.1250-0.3750 0.3750 (   773 PWs)   bands (ev):

    -4.6071   1.4040   3.7198   5.2263

          k = 0.1250 0.1250 0.3750 (   768 PWs)   bands (ev):

    -5.1061   2.7811   4.6982   4.7626

          k = 0.3750-0.1250 0.3750 (   773 PWs)   bands (ev):

    -4.6071   1.4040   3.7198   5.2263

          k = 0.3750 0.3750 0.3750 (   763 PWs)   bands (ev):

    -4.1739   0.1131   4.9193   4.9193

          k = 0.3750 0.1250 0.3750 (   773 PWs)   bands (ev):

    -4.6071   1.4040   3.7198   5.2263

          k = 0.3750 0.6250 0.3750 (   763 PWs)   bands (ev):

    -3.4668  -0.6751   3.7409   4.4545

          k =-0.6250 0.3750-0.3750 (   763 PWs)   bands (ev):

    -3.4668  -0.6751   3.7409   4.4545

          k =-0.6250 0.8750-0.3750 (   768 PWs)   bands (ev):

    -3.6585   0.1968   2.7290   4.0986

          k =-0.3750 0.6250-0.3750 (   763 PWs)   bands (ev):

    -3.4668  -0.6751   3.7409   4.4545

          k =-0.3750 1.1250-0.3750 (   767 PWs)   bands (ev):

    -2.9709  -0.5897   2.0743   4.1374

          k =-0.3750-0.6250-0.3750 (   763 PWs)   bands (ev):

    -3.4668  -0.6751   3.7409   4.4545

          k =-0.3750-0.1250-0.3750 (   773 PWs)   bands (ev):

    -4.6071   1.4040   3.7198   5.2263

          k =-0.3750 0.1250-0.1250 (   768 PWs)   bands (ev):

    -5.1061   2.7811   4.6982   4.7626

          k =-0.3750 0.6250-0.1250 (   768 PWs)   bands (ev):

    -3.6585   0.1968   2.7290   4.0986

          k =-0.1250 0.3750-0.1250 (   768 PWs)   bands (ev):

    -5.1061   2.7811   4.6982   4.7626

          k =-0.1250 0.8750-0.1250 (   762 PWs)   bands (ev):

    -2.6017  -0.7943   2.6260   3.3568

          k =-0.1250-0.3750-0.1250 (   768 PWs)   bands (ev):

    -5.1061   2.7811   4.6982   4.7626

          k =-0.1250 0.1250-0.1250 (   770 PWs)   bands (ev):

    -5.6341   4.3974   5.7066   5.7066

          k =-0.1250-0.6250 0.1250 (   766 PWs)   bands (ev):

    -4.0743   1.0706   3.3709   3.8239

          k =-0.1250-0.1250 0.1250 (   770 PWs)   bands (ev):

    -5.6341   4.3974   5.7066   5.7066

          k = 0.6250-0.1250-0.1250 (   766 PWs)   bands (ev):

    -4.0743   1.0706   3.3709   3.8239

          k = 0.6250 0.3750-0.1250 (   768 PWs)   bands (ev):

    -3.6585   0.1968   2.7290   4.0986

          k = 0.6250 0.1250 0.1250 (   766 PWs)   bands (ev):

    -4.0743   1.0706   3.3709   3.8239

          k = 0.6250 0.6250 0.1250 (   767 PWs)   bands (ev):

    -2.9709  -0.5897   2.0743   4.1374

          k =-0.8750 0.1250-0.6250 (   755 PWs)   bands (ev):

    -2.4337  -0.8918   2.0158   3.0929

          k =-0.8750 0.6250-0.6250 (   773 PWs)   bands (ev):

    -4.6071   1.4040   3.7198   5.2263

          k =-0.1250 0.6250-0.8750 (   755 PWs)   bands (ev):

    -2.4337  -0.8918   2.0158   3.0929

          k =-0.1250 1.1250-0.8750 (   762 PWs)   bands (ev):

    -2.6017  -0.7943   2.6260   3.3568

          k =-0.1250 0.8750-0.6250 (   755 PWs)   bands (ev):

    -2.4337  -0.8918   2.0158   3.0929

          k =-0.1250 1.3750-0.6250 (   767 PWs)   bands (ev):

    -2.9709  -0.5897   2.0743   4.1374

          k =-0.1250-0.8750-0.6250 (   755 PWs)   bands (ev):

    -2.4337  -0.8918   2.0158   3.0929

          k =-0.1250-0.3750-0.6250 (   768 PWs)   bands (ev):

    -3.6585   0.1968   2.7290   4.0986

          k = 0.8750-0.6250 0.1250 (   755 PWs)   bands (ev):

    -2.4337  -0.8918   2.0158   3.0929

          k = 0.8750-0.1250 0.1250 (   762 PWs)   bands (ev):

    -2.6017  -0.7943   2.6260   3.3568

          k =-0.6250-0.1250-0.3750 (   768 PWs)   bands (ev):

    -3.6585   0.1968   2.7290   4.0986

          k =-0.6250 0.3750-0.3750 (   763 PWs)   bands (ev):

    -3.4668  -0.6751   3.7409   4.4545

          k = 0.1250 0.3750-0.6250 (   768 PWs)   bands (ev):

    -3.6585   0.1968   2.7290   4.0986

          k = 0.1250 0.8750-0.6250 (   755 PWs)   bands (ev):

    -2.4337  -0.8918   2.0158   3.0929

          k = 0.1250 0.6250-0.3750 (   768 PWs)   bands (ev):

    -3.6585   0.1968   2.7290   4.0986

          k = 0.1250 1.1250-0.3750 (   755 PWs)   bands (ev):

    -2.4337  -0.8918   2.0158   3.0929

          k = 0.1250-0.6250-0.3750 (   768 PWs)   bands (ev):

    -3.6585   0.1968   2.7290   4.0986

          k = 0.1250-0.1250-0.3750 (   768 PWs)   bands (ev):

    -5.1061   2.7811   4.6982   4.7626

          k = 0.6250-0.3750-0.1250 (   768 PWs)   bands (ev):

    -3.6585   0.1968   2.7290   4.0986

          k = 0.6250 0.1250-0.1250 (   766 PWs)   bands (ev):

    -4.0743   1.0706   3.3709   3.8239

          k =-0.1250 0.8750 0.1250 (   762 PWs)   bands (ev):

    -2.6017  -0.7943   2.6260   3.3568

          k =-0.1250 1.3750 0.1250 (   766 PWs)   bands (ev):

    -4.0743   1.0706   3.3709   3.8239

          k =-0.8750-0.1250-0.1250 (   762 PWs)   bands (ev):

    -2.6017  -0.7943   2.6260   3.3568

          k =-0.8750 0.3750-0.1250 (   755 PWs)   bands (ev):

    -2.4337  -0.8918   2.0158   3.0929

          k =-0.8750 0.1250 0.1250 (   762 PWs)   bands (ev):

    -2.6017  -0.7943   2.6260   3.3568

          k =-0.8750 0.6250 0.1250 (   755 PWs)   bands (ev):

    -2.4337  -0.8918   2.0158   3.0929

          k =-0.3750-0.3750 0.3750 (   763 PWs)   bands (ev):

    -4.1739   0.1131   4.9193   4.9193

          k =-0.3750 0.1250 0.3750 (   773 PWs)   bands (ev):

    -4.6071   1.4040   3.7198   5.2263

          k =-1.1250 0.3750-0.3750 (   767 PWs)   bands (ev):

    -2.9709  -0.5897   2.0743   4.1374

          k =-1.1250 0.8750-0.3750 (   766 PWs)   bands (ev):

    -4.0743   1.0706   3.3709   3.8239

          k =-0.3750 1.1250-0.3750 (   767 PWs)   bands (ev):

    -2.9709  -0.5897   2.0743   4.1374

          k =-0.3750 1.6250-0.3750 (   763 PWs)   bands (ev):

    -4.1739   0.1131   4.9193   4.9193

          k =-0.3750-1.1250-0.3750 (   767 PWs)   bands (ev):

    -2.9709  -0.5897   2.0743   4.1374

          k =-0.3750-0.6250-0.3750 (   763 PWs)   bands (ev):

    -3.4668  -0.6751   3.7409   4.4545

     highest occupied level (ev):     5.7066

     Writing output data file silicon.10.330.save

                                                                                

     bravais-lattice index     =            2
     lattice parameter (alat)  =      10.3300  a.u.
     unit-cell volume          =     275.5757 (a.u.)^3
     number of atoms/cell      =            2
     number of atomic types    =            1
     kinetic-energy cut-off    =      30.0000  Ry
     charge density cut-off    =     240.0000  Ry
     convergence threshold     =      1.0E-12
     beta                      =       0.7000
     number of iterations used =            4
     Exchange-correlation      = SLA  PW   PBE  PBE ( 1  4  3  4 0 0)


     celldm(1)=   10.33000  celldm(2)=    0.00000  celldm(3)=    0.00000
     celldm(4)=    0.00000  celldm(5)=    0.00000  celldm(6)=    0.00000

     crystal axes: (cart. coord. in units of alat)
               a(1) = ( -0.5000  0.0000  0.5000 )  
               a(2) = (  0.0000  0.5000  0.5000 )  
               a(3) = ( -0.5000  0.5000  0.0000 )  

     reciprocal axes: (cart. coord. in units 2 pi/alat)
               b(1) = ( -1.0000 -1.0000  1.0000 )  
               b(2) = (  1.0000  1.0000  1.0000 )  
               b(3) = ( -1.0000  1.0000 -1.0000 )  


     Atoms inside the unit cell: 

     Cartesian axes

     site n.  atom      mass           positions (alat units)
        1     Si  28.0860   tau(    1) = (    0.00000    0.00000    0.00000  )
        2     Si  28.0860   tau(    2) = (    0.25000    0.25000    0.25000  )

     Computing dynamical matrix for 
                    q = (   0.0000000   0.5000000   0.0000000 )

      8 Sym.Ops. (no q -> -q+G )


     G cutoff =  648.7123  (   4315 G-vectors)     FFT grid: ( 40, 40, 40)
     G cutoff =  324.3562  (   1546 G-vectors)  smooth grid: ( 25, 25, 25)
     number of k points=    80

     PseudoPot. # 1 for Si read from file:
     /home/s1333534/quantum_espresso/qe-6.1/pseudo/si_pbe_v1.uspp.F.UPF.txt
     MD5 check sum: a056efeee980c13900f22a371efd63c1
     Pseudo is Ultrasoft + core correction, Zval =  4.0
     Generated by new atomic code, or converted to UPF format
     Using radial grid of  899 points,  6 beta functions with: 
                l(1) =   0
                l(2) =   0
                l(3) =   1
                l(4) =   1
                l(5) =   2
                l(6) =   2
     Q(r) pseudized with  8 coefficients,  rinner =    0.900   0.900   0.900
                                                       0.900   0.900

     Mode symmetry, C_4v (4mm)  point group:


     Atomic displacements:
     There are   4 irreducible representations

     Representation     1      1 modes -A_1  G_1 D_1  To be done

     Representation     2      1 modes -B_2  G_4 D_2'  To be done

     Representation     3      2 modes -E    G_5 D_5  To be done

     Representation     4      2 modes -E    G_5 D_5  To be done



     Alpha used in Ewald sum =   2.5000
     PHONON       :    39.98s CPU        55.03s WALL



     Representation #  1 mode #   1

     Self-consistent Calculation

      iter #   1 total cpu time :    55.4 secs   av.it.:   6.2
      thresh= 1.000E-02 alpha_mix =  0.700 |ddv_scf|^2 =  3.741E-04

      iter #   2 total cpu time :    55.9 secs   av.it.:   9.5
      thresh= 1.934E-03 alpha_mix =  0.700 |ddv_scf|^2 =  4.964E-03

      iter #   3 total cpu time :    56.3 secs   av.it.:   7.5
      thresh= 7.045E-03 alpha_mix =  0.700 |ddv_scf|^2 =  7.466E-09

      iter #   4 total cpu time :    56.8 secs   av.it.:  10.2
      thresh= 8.641E-06 alpha_mix =  0.700 |ddv_scf|^2 =  7.182E-10

      iter #   5 total cpu time :    57.3 secs   av.it.:   9.9
      thresh= 2.680E-06 alpha_mix =  0.700 |ddv_scf|^2 =  8.141E-11

      iter #   6 total cpu time :    57.8 secs   av.it.:   9.5
      thresh= 9.023E-07 alpha_mix =  0.700 |ddv_scf|^2 =  2.490E-13

     End of self-consistent calculation

     Convergence has been achieved 


     Representation #  2 mode #   2

     Self-consistent Calculation

      iter #   1 total cpu time :    58.2 secs   av.it.:   5.1
      thresh= 1.000E-02 alpha_mix =  0.700 |ddv_scf|^2 =  5.912E-07

      iter #   2 total cpu time :    58.7 secs   av.it.:  10.6
      thresh= 7.689E-05 alpha_mix =  0.700 |ddv_scf|^2 =  1.619E-07

      iter #   3 total cpu time :    59.6 secs   av.it.:  10.2
      thresh= 4.024E-05 alpha_mix =  0.700 |ddv_scf|^2 =  1.650E-09

      iter #   4 total cpu time :    60.1 secs   av.it.:  10.3
      thresh= 4.062E-06 alpha_mix =  0.700 |ddv_scf|^2 =  6.477E-11

      iter #   5 total cpu time :    60.6 secs   av.it.:  10.4
      thresh= 8.048E-07 alpha_mix =  0.700 |ddv_scf|^2 =  3.836E-13

     End of self-consistent calculation

     Convergence has been achieved 


     Representation #  3 modes #   3  4

     Self-consistent Calculation

      iter #   1 total cpu time :    61.3 secs   av.it.:   5.2
      thresh= 1.000E-02 alpha_mix =  0.700 |ddv_scf|^2 =  1.048E-07

      iter #   2 total cpu time :    62.3 secs   av.it.:  11.7
      thresh= 3.237E-05 alpha_mix =  0.700 |ddv_scf|^2 =  1.445E-08

      iter #   3 total cpu time :    63.4 secs   av.it.:  11.2
      thresh= 1.202E-05 alpha_mix =  0.700 |ddv_scf|^2 =  2.432E-10

      iter #   4 total cpu time :    64.3 secs   av.it.:  10.8
      thresh= 1.560E-06 alpha_mix =  0.700 |ddv_scf|^2 =  5.728E-13

     End of self-consistent calculation

     Convergence has been achieved 


     Representation #  4 modes #   5  6

     Self-consistent Calculation

      iter #   1 total cpu time :    65.1 secs   av.it.:   5.3
      thresh= 1.000E-02 alpha_mix =  0.700 |ddv_scf|^2 =  9.604E-08

      iter #   2 total cpu time :    66.1 secs   av.it.:  11.6
      thresh= 3.099E-05 alpha_mix =  0.700 |ddv_scf|^2 =  1.289E-08

      iter #   3 total cpu time :    67.1 secs   av.it.:  11.4
      thresh= 1.135E-05 alpha_mix =  0.700 |ddv_scf|^2 =  2.489E-10

      iter #   4 total cpu time :    68.0 secs   av.it.:  11.1
      thresh= 1.578E-06 alpha_mix =  0.700 |ddv_scf|^2 =  6.102E-13

     End of self-consistent calculation

     Convergence has been achieved 

     Number of q in the star =    6
     List of q in the star:
          1   0.000000000   0.500000000   0.000000000
          2   0.000000000  -0.500000000   0.000000000
          3   0.500000000   0.000000000   0.000000000
          4   0.000000000   0.000000000   0.500000000
          5   0.000000000   0.000000000  -0.500000000
          6  -0.500000000   0.000000000   0.000000000

     Diagonalizing the dynamical matrix

     q = (    0.000000000   0.500000000   0.000000000 ) 

 **************************************************************************
     freq (    1) =       3.767338 [THz] =     125.664870 [cm-1]
     freq (    2) =       3.767338 [THz] =     125.664870 [cm-1]
     freq (    3) =       7.066803 [THz] =     235.723160 [cm-1]
     freq (    4) =      13.838722 [THz] =     461.610084 [cm-1]
     freq (    5) =      13.838722 [THz] =     461.610084 [cm-1]
     freq (    6) =      14.470200 [THz] =     482.673902 [cm-1]
 **************************************************************************

     Mode symmetry, C_4v (4mm)  point group:

     freq (  1 -  2) =        125.7  [cm-1]   --> E    G_5 D_5       
     freq (  3 -  3) =        235.7  [cm-1]   --> A_1  G_1 D_1       
     freq (  4 -  5) =        461.6  [cm-1]   --> E    G_5 D_5       
     freq (  6 -  6) =        482.7  [cm-1]   --> B_2  G_4 D_2'      

     Calculation of q =    0.7500000  -0.2500000   0.7500000

   Info: using nr1, nr2, nr3 values from input

   Info: using nr1, nr2, nr3 values from input

     Parallelization info
     --------------------
     sticks:   dense  smooth     PW     G-vecs:    dense   smooth      PW
     Min         219     109     40                 4315     1545     362
     Max         220     110     41                 4316     1546     366
     Sum         877     439    163                17261     6183    1459



     bravais-lattice index     =            2
     lattice parameter (alat)  =      10.3300  a.u.
     unit-cell volume          =     275.5757 (a.u.)^3
     number of atoms/cell      =            2
     number of atomic types    =            1
     number of electrons       =         8.00
     number of Kohn-Sham states=            4
     kinetic-energy cutoff     =      30.0000  Ry
     charge density cutoff     =     240.0000  Ry
     Exchange-correlation      = SLA  PW   PBE  PBE ( 1  4  3  4 0 0)

     celldm(1)=  10.330000  celldm(2)=   0.000000  celldm(3)=   0.000000
     celldm(4)=   0.000000  celldm(5)=   0.000000  celldm(6)=   0.000000

     crystal axes: (cart. coord. in units of alat)
               a(1) = (  -0.500000   0.000000   0.500000 )  
               a(2) = (   0.000000   0.500000   0.500000 )  
               a(3) = (  -0.500000   0.500000   0.000000 )  

     reciprocal axes: (cart. coord. in units 2 pi/alat)
               b(1) = ( -1.000000 -1.000000  1.000000 )  
               b(2) = (  1.000000  1.000000  1.000000 )  
               b(3) = ( -1.000000  1.000000 -1.000000 )  


     PseudoPot. # 1 for Si read from file:
     /home/s1333534/quantum_espresso/qe-6.1/pseudo/si_pbe_v1.uspp.F.UPF.txt
     MD5 check sum: a056efeee980c13900f22a371efd63c1
     Pseudo is Ultrasoft + core correction, Zval =  4.0
     Generated by new atomic code, or converted to UPF format
     Using radial grid of  899 points,  6 beta functions with: 
                l(1) =   0
                l(2) =   0
                l(3) =   1
                l(4) =   1
                l(5) =   2
                l(6) =   2
     Q(r) pseudized with  8 coefficients,  rinner =    0.900   0.900   0.900
                                                       0.900   0.900

     atomic species   valence    mass     pseudopotential
        Si             4.00    28.08600     Si( 1.00)

     48 Sym. Ops., with inversion, found



   Cartesian axes

     site n.     atom                  positions (alat units)
         1           Si  tau(   1) = (   0.0000000   0.0000000   0.0000000  )
         2           Si  tau(   2) = (   0.2500000   0.2500000   0.2500000  )

     number of k points=   288

     Number of k-points >= 100: set verbosity='high' to print them.

     Dense  grid:    17261 G-vectors     FFT dimensions: (  40,  40,  40)

     Smooth grid:     6183 G-vectors     FFT dimensions: (  25,  25,  25)

     Estimated max dynamical RAM per process >       1.78MB

     Estimated total allocated dynamical RAM >       7.14MB

     The potential is recalculated from file :
     ./_ph0/silicon.10.330.save/charge-density.dat

     Starting wfc are    8 atomic wfcs

     Band Structure Calculation
     Davidson diagonalization with overlap

     ethr =  1.25E-10,  avg # of iterations = 12.1

     total cpu time spent up to now is        7.2 secs

     End of band structure calculation

     Number of k-points >= 100: set verbosity='high' to print the bands.

     highest occupied level (ev):     5.7066

     Writing output data file silicon.10.330.save

                                                                                

     bravais-lattice index     =            2
     lattice parameter (alat)  =      10.3300  a.u.
     unit-cell volume          =     275.5757 (a.u.)^3
     number of atoms/cell      =            2
     number of atomic types    =            1
     kinetic-energy cut-off    =      30.0000  Ry
     charge density cut-off    =     240.0000  Ry
     convergence threshold     =      1.0E-12
     beta                      =       0.7000
     number of iterations used =            4
     Exchange-correlation      = SLA  PW   PBE  PBE ( 1  4  3  4 0 0)


     celldm(1)=   10.33000  celldm(2)=    0.00000  celldm(3)=    0.00000
     celldm(4)=    0.00000  celldm(5)=    0.00000  celldm(6)=    0.00000

     crystal axes: (cart. coord. in units of alat)
               a(1) = ( -0.5000  0.0000  0.5000 )  
               a(2) = (  0.0000  0.5000  0.5000 )  
               a(3) = ( -0.5000  0.5000  0.0000 )  

     reciprocal axes: (cart. coord. in units 2 pi/alat)
               b(1) = ( -1.0000 -1.0000  1.0000 )  
               b(2) = (  1.0000  1.0000  1.0000 )  
               b(3) = ( -1.0000  1.0000 -1.0000 )  


     Atoms inside the unit cell: 

     Cartesian axes

     site n.  atom      mass           positions (alat units)
        1     Si  28.0860   tau(    1) = (    0.00000    0.00000    0.00000  )
        2     Si  28.0860   tau(    2) = (    0.25000    0.25000    0.25000  )

     Computing dynamical matrix for 
                    q = (   0.7500000  -0.2500000   0.7500000 )

      2 Sym.Ops. (no q -> -q+G )


     G cutoff =  648.7123  (   4315 G-vectors)     FFT grid: ( 40, 40, 40)
     G cutoff =  324.3562  (   1546 G-vectors)  smooth grid: ( 25, 25, 25)
     number of k points=   288

     PseudoPot. # 1 for Si read from file:
     /home/s1333534/quantum_espresso/qe-6.1/pseudo/si_pbe_v1.uspp.F.UPF.txt
     MD5 check sum: a056efeee980c13900f22a371efd63c1
     Pseudo is Ultrasoft + core correction, Zval =  4.0
     Generated by new atomic code, or converted to UPF format
     Using radial grid of  899 points,  6 beta functions with: 
                l(1) =   0
                l(2) =   0
                l(3) =   1
                l(4) =   1
                l(5) =   2
                l(6) =   2
     Q(r) pseudized with  8 coefficients,  rinner =    0.900   0.900   0.900
                                                       0.900   0.900

     Mode symmetry, C_s (m)     point group:


     Atomic displacements:
     There are   6 irreducible representations

     Representation     1      1 modes -A'  To be done

     Representation     2      1 modes -A'  To be done

     Representation     3      1 modes -A'  To be done

     Representation     4      1 modes -A'  To be done

     Representation     5      1 modes -A''  To be done

     Representation     6      1 modes -A''  To be done



     Alpha used in Ewald sum =   2.5000
     PHONON       :  0m54.50s CPU     1m13.27s WALL



     Representation #  1 mode #   1

     Self-consistent Calculation

      iter #   1 total cpu time :    74.2 secs   av.it.:   5.6
      thresh= 1.000E-02 alpha_mix =  0.700 |ddv_scf|^2 =  7.631E-06

      iter #   2 total cpu time :    75.6 secs   av.it.:  10.7
      thresh= 2.762E-04 alpha_mix =  0.700 |ddv_scf|^2 =  2.038E-05

      iter #   3 total cpu time :    76.9 secs   av.it.:   9.4
      thresh= 4.514E-04 alpha_mix =  0.700 |ddv_scf|^2 =  1.367E-07

      iter #   4 total cpu time :    78.2 secs   av.it.:  10.1
      thresh= 3.697E-05 alpha_mix =  0.700 |ddv_scf|^2 =  2.714E-09

      iter #   5 total cpu time :    79.6 secs   av.it.:  10.6
      thresh= 5.209E-06 alpha_mix =  0.700 |ddv_scf|^2 =  4.661E-10

      iter #   6 total cpu time :    81.0 secs   av.it.:  10.6
      thresh= 2.159E-06 alpha_mix =  0.700 |ddv_scf|^2 =  7.108E-12

      iter #   7 total cpu time :    82.3 secs   av.it.:  10.7
      thresh= 2.666E-07 alpha_mix =  0.700 |ddv_scf|^2 =  2.691E-13

     End of self-consistent calculation

     Convergence has been achieved 


     Representation #  2 mode #   2

     Self-consistent Calculation

      iter #   1 total cpu time :    83.7 secs   av.it.:   5.8
      thresh= 1.000E-02 alpha_mix =  0.700 |ddv_scf|^2 =  1.366E-05

      iter #   2 total cpu time :    85.1 secs   av.it.:  10.6
      thresh= 3.696E-04 alpha_mix =  0.700 |ddv_scf|^2 =  3.961E-05

      iter #   3 total cpu time :    86.4 secs   av.it.:   9.2
      thresh= 6.293E-04 alpha_mix =  0.700 |ddv_scf|^2 =  9.227E-08

      iter #   4 total cpu time :    87.7 secs   av.it.:  10.4
      thresh= 3.038E-05 alpha_mix =  0.700 |ddv_scf|^2 =  3.068E-09

      iter #   5 total cpu time :    89.1 secs   av.it.:  10.6
      thresh= 5.539E-06 alpha_mix =  0.700 |ddv_scf|^2 =  6.251E-10

      iter #   6 total cpu time :    90.5 secs   av.it.:  10.5
      thresh= 2.500E-06 alpha_mix =  0.700 |ddv_scf|^2 =  6.484E-12

      iter #   7 total cpu time :    91.8 secs   av.it.:  10.7
      thresh= 2.546E-07 alpha_mix =  0.700 |ddv_scf|^2 =  2.292E-13

     End of self-consistent calculation

     Convergence has been achieved 


     Representation #  3 mode #   3

     Self-consistent Calculation

      iter #   1 total cpu time :    92.9 secs   av.it.:   5.7
      thresh= 1.000E-02 alpha_mix =  0.700 |ddv_scf|^2 =  1.071E-05

      iter #   2 total cpu time :    94.3 secs   av.it.:  10.7
      thresh= 3.272E-04 alpha_mix =  0.700 |ddv_scf|^2 =  2.915E-05

      iter #   3 total cpu time :    95.6 secs   av.it.:   9.2
      thresh= 5.399E-04 alpha_mix =  0.700 |ddv_scf|^2 =  1.609E-07

      iter #   4 total cpu time :    96.9 secs   av.it.:  10.0
      thresh= 4.012E-05 alpha_mix =  0.700 |ddv_scf|^2 =  3.127E-09

      iter #   5 total cpu time :    98.3 secs   av.it.:  10.7
      thresh= 5.592E-06 alpha_mix =  0.700 |ddv_scf|^2 =  6.109E-10

      iter #   6 total cpu time :    99.7 secs   av.it.:  10.5
      thresh= 2.472E-06 alpha_mix =  0.700 |ddv_scf|^2 =  4.540E-12

      iter #   7 total cpu time :   101.0 secs   av.it.:  10.7
      thresh= 2.131E-07 alpha_mix =  0.700 |ddv_scf|^2 =  1.327E-13

     End of self-consistent calculation

     Convergence has been achieved 


     Representation #  4 mode #   4

     Self-consistent Calculation

      iter #   1 total cpu time :   102.1 secs   av.it.:   5.5
      thresh= 1.000E-02 alpha_mix =  0.700 |ddv_scf|^2 =  4.669E-06

      iter #   2 total cpu time :   103.5 secs   av.it.:  10.9
      thresh= 2.161E-04 alpha_mix =  0.700 |ddv_scf|^2 =  9.900E-06

      iter #   3 total cpu time :   105.1 secs   av.it.:   9.7
      thresh= 3.146E-04 alpha_mix =  0.700 |ddv_scf|^2 =  2.143E-07

      iter #   4 total cpu time :   106.5 secs   av.it.:  10.0
      thresh= 4.629E-05 alpha_mix =  0.700 |ddv_scf|^2 =  2.679E-09

      iter #   5 total cpu time :   107.8 secs   av.it.:  10.7
      thresh= 5.176E-06 alpha_mix =  0.700 |ddv_scf|^2 =  5.012E-10

      iter #   6 total cpu time :   109.2 secs   av.it.:  10.5
      thresh= 2.239E-06 alpha_mix =  0.700 |ddv_scf|^2 =  3.003E-12

      iter #   7 total cpu time :   110.5 secs   av.it.:  10.8
      thresh= 1.733E-07 alpha_mix =  0.700 |ddv_scf|^2 =  1.393E-13

     End of self-consistent calculation

     Convergence has been achieved 


     Representation #  5 mode #   5

     Self-consistent Calculation

      iter #   1 total cpu time :   111.5 secs   av.it.:   5.2
      thresh= 1.000E-02 alpha_mix =  0.700 |ddv_scf|^2 =  4.842E-07

      iter #   2 total cpu time :   112.9 secs   av.it.:  10.4
      thresh= 6.959E-05 alpha_mix =  0.700 |ddv_scf|^2 =  7.899E-08

      iter #   3 total cpu time :   114.2 secs   av.it.:  10.2
      thresh= 2.811E-05 alpha_mix =  0.700 |ddv_scf|^2 =  1.053E-09

      iter #   4 total cpu time :   115.6 secs   av.it.:   9.8
      thresh= 3.245E-06 alpha_mix =  0.700 |ddv_scf|^2 =  2.462E-12

      iter #   5 total cpu time :   116.9 secs   av.it.:  10.3
      thresh= 1.569E-07 alpha_mix =  0.700 |ddv_scf|^2 =  6.947E-14

     End of self-consistent calculation

     Convergence has been achieved 


     Representation #  6 mode #   6

     Self-consistent Calculation

      iter #   1 total cpu time :   118.0 secs   av.it.:   5.2
      thresh= 1.000E-02 alpha_mix =  0.700 |ddv_scf|^2 =  4.842E-07

      iter #   2 total cpu time :   119.4 secs   av.it.:  10.4
[...]
        k(   59) = (  -0.8750000   0.1250000  -0.1250000), wk =   0.0625000
        k(   60) = (  -1.3750000  -0.8750000  -0.1250000), wk =   0.0000000
        k(   61) = (  -1.1250000   0.3750000  -0.3750000), wk =   0.0625000
        k(   62) = (  -1.6250000  -0.6250000  -0.3750000), wk =   0.0000000
        k(   63) = (  -0.3750000   0.3750000   1.1250000), wk =   0.0625000
        k(   64) = (  -0.8750000  -0.6250000   1.1250000), wk =   0.0000000

     Dense  grid:    17261 G-vectors     FFT dimensions: (  40,  40,  40)

     Smooth grid:     6183 G-vectors     FFT dimensions: (  25,  25,  25)

     Estimated max dynamical RAM per process >       1.78MB

     Estimated total allocated dynamical RAM >       7.14MB

     The potential is recalculated from file :
     ./_ph0/silicon.10.330.save/charge-density.dat

     Starting wfc are    8 atomic wfcs

     Band Structure Calculation
     Davidson diagonalization with overlap

     ethr =  1.25E-10,  avg # of iterations = 12.1

     total cpu time spent up to now is       11.1 secs

     End of band structure calculation

          k =-0.1250 0.1250 0.1250 (   770 PWs)   bands (ev):

    -5.6341   4.3974   5.7066   5.7066

          k =-0.6250-0.8750 0.1250 (   755 PWs)   bands (ev):

    -2.4337  -0.8918   2.0158   3.0929

          k =-0.3750 0.3750-0.1250 (   773 PWs)   bands (ev):

    -4.6071   1.4040   3.7198   5.2263

          k =-0.8750-0.6250-0.1250 (   755 PWs)   bands (ev):

    -2.4337  -0.8918   2.0158   3.0929

          k = 0.3750-0.3750 0.6250 (   763 PWs)   bands (ev):

    -3.4668  -0.6751   3.7409   4.4545

          k =-0.1250-1.3750 0.6250 (   767 PWs)   bands (ev):

    -2.9709  -0.5897   2.0743   4.1374

          k = 0.1250-0.1250 0.3750 (   768 PWs)   bands (ev):

    -5.1061   2.7811   4.6982   4.7626

          k =-0.3750-1.1250 0.3750 (   767 PWs)   bands (ev):

    -2.9709  -0.5897   2.0743   4.1374

          k =-0.1250 0.6250 0.1250 (   766 PWs)   bands (ev):

    -4.0743   1.0706   3.3709   3.8239

          k =-0.6250-0.3750 0.1250 (   768 PWs)   bands (ev):

    -3.6585   0.1968   2.7290   4.0986

          k = 0.6250-0.1250 0.8750 (   755 PWs)   bands (ev):

    -2.4337  -0.8918   2.0158   3.0929

          k = 0.1250-1.1250 0.8750 (   762 PWs)   bands (ev):

    -2.6017  -0.7943   2.6260   3.3568

          k = 0.3750 0.1250 0.6250 (   768 PWs)   bands (ev):

    -3.6585   0.1968   2.7290   4.0986

          k =-0.1250-0.8750 0.6250 (   755 PWs)   bands (ev):

    -2.4337  -0.8918   2.0158   3.0929

          k =-0.1250-0.8750 0.1250 (   762 PWs)   bands (ev):

    -2.6017  -0.7943   2.6260   3.3568

          k =-0.6250-1.8750 0.1250 (   766 PWs)   bands (ev):

    -4.0743   1.0706   3.3709   3.8239

          k =-0.3750 0.3750 0.3750 (   763 PWs)   bands (ev):

    -4.1739   0.1131   4.9193   4.9193

          k =-0.8750-0.6250 0.3750 (   768 PWs)   bands (ev):

    -3.6585   0.1968   2.7290   4.0986

          k = 0.3750-0.3750 1.1250 (   767 PWs)   bands (ev):

    -2.9709  -0.5897   2.0743   4.1374

          k =-0.1250-1.3750 1.1250 (   755 PWs)   bands (ev):

    -2.4337  -0.8918   2.0158   3.0929

          k = 0.1250-0.3750 0.3750 (   773 PWs)   bands (ev):

    -4.6071   1.4040   3.7198   5.2263

          k =-0.3750-1.3750 0.3750 (   763 PWs)   bands (ev):

    -3.4668  -0.6751   3.7409   4.4545

          k = 0.3750-0.3750-0.1250 (   773 PWs)   bands (ev):

    -4.6071   1.4040   3.7198   5.2263

          k =-0.1250-1.3750-0.1250 (   766 PWs)   bands (ev):

    -4.0743   1.0706   3.3709   3.8239

          k =-0.6250 0.3750-0.3750 (   763 PWs)   bands (ev):

    -3.4668  -0.6751   3.7409   4.4545

          k =-1.1250-0.6250-0.3750 (   768 PWs)   bands (ev):

    -3.6585   0.1968   2.7290   4.0986

          k =-0.3750 0.3750 0.6250 (   763 PWs)   bands (ev):

    -3.4668  -0.6751   3.7409   4.4545

          k =-0.8750-0.6250 0.6250 (   773 PWs)   bands (ev):

    -4.6071   1.4040   3.7198   5.2263

          k =-0.3750 0.1250-0.1250 (   768 PWs)   bands (ev):

    -5.1061   2.7811   4.6982   4.7626

          k =-0.8750-0.8750-0.1250 (   762 PWs)   bands (ev):

    -2.6017  -0.7943   2.6260   3.3568

          k =-0.1250 0.1250 0.3750 (   768 PWs)   bands (ev):

    -5.1061   2.7811   4.6982   4.7626

          k =-0.6250-0.8750 0.3750 (   768 PWs)   bands (ev):

    -3.6585   0.1968   2.7290   4.0986

          k = 0.1250 0.6250-0.1250 (   766 PWs)   bands (ev):

    -4.0743   1.0706   3.3709   3.8239

          k =-0.3750-0.3750-0.1250 (   773 PWs)   bands (ev):

    -4.6071   1.4040   3.7198   5.2263

          k = 0.6250 0.1250-0.1250 (   766 PWs)   bands (ev):

    -4.0743   1.0706   3.3709   3.8239

          k = 0.1250-0.8750-0.1250 (   762 PWs)   bands (ev):

    -2.6017  -0.7943   2.6260   3.3568

          k =-0.8750 0.1250-0.6250 (   755 PWs)   bands (ev):

    -2.4337  -0.8918   2.0158   3.0929

          k =-1.3750-0.8750-0.6250 (   773 PWs)   bands (ev):

    -4.6071   1.4040   3.7198   5.2263

          k = 0.8750-0.1250 0.6250 (   755 PWs)   bands (ev):

    -2.4337  -0.8918   2.0158   3.0929

          k = 0.3750-1.1250 0.6250 (   768 PWs)   bands (ev):

    -3.6585   0.1968   2.7290   4.0986

          k =-0.6250 0.1250 0.8750 (   755 PWs)   bands (ev):

    -2.4337  -0.8918   2.0158   3.0929

          k =-1.1250-0.8750 0.8750 (   770 PWs)   bands (ev):

    -5.6341   4.3974   5.7066   5.7066

          k =-0.1250 0.8750 0.6250 (   755 PWs)   bands (ev):

    -2.4337  -0.8918   2.0158   3.0929

          k =-0.6250-0.1250 0.6250 (   767 PWs)   bands (ev):

    -2.9709  -0.5897   2.0743   4.1374

          k = 0.1250 0.8750-0.6250 (   755 PWs)   bands (ev):

    -2.4337  -0.8918   2.0158   3.0929

          k =-0.3750-0.1250-0.6250 (   768 PWs)   bands (ev):

    -3.6585   0.1968   2.7290   4.0986

          k =-0.6250-0.1250-0.3750 (   768 PWs)   bands (ev):

    -3.6585   0.1968   2.7290   4.0986

          k =-1.1250-1.1250-0.3750 (   766 PWs)   bands (ev):

    -4.0743   1.0706   3.3709   3.8239

          k = 0.6250 0.1250 0.3750 (   768 PWs)   bands (ev):

    -3.6585   0.1968   2.7290   4.0986

          k = 0.1250-0.8750 0.3750 (   755 PWs)   bands (ev):

    -2.4337  -0.8918   2.0158   3.0929

          k =-0.3750-0.1250 0.6250 (   768 PWs)   bands (ev):

    -3.6585   0.1968   2.7290   4.0986

          k =-0.8750-1.1250 0.6250 (   768 PWs)   bands (ev):

    -5.1061   2.7811   4.6982   4.7626

          k = 0.1250 0.6250 0.3750 (   768 PWs)   bands (ev):

    -3.6585   0.1968   2.7290   4.0986

          k =-0.3750-0.3750 0.3750 (   763 PWs)   bands (ev):

    -4.1739   0.1131   4.9193   4.9193

          k =-0.1250 0.6250-0.3750 (   768 PWs)   bands (ev):

    -3.6585   0.1968   2.7290   4.0986

          k =-0.6250-0.3750-0.3750 (   763 PWs)   bands (ev):

    -3.4668  -0.6751   3.7409   4.4545

          k = 0.1250-0.8750-0.1250 (   762 PWs)   bands (ev):

    -2.6017  -0.7943   2.6260   3.3568

          k =-0.3750-1.8750-0.1250 (   768 PWs)   bands (ev):

    -5.1061   2.7811   4.6982   4.7626

          k =-0.8750 0.1250-0.1250 (   762 PWs)   bands (ev):

    -2.6017  -0.7943   2.6260   3.3568

          k =-1.3750-0.8750-0.1250 (   755 PWs)   bands (ev):

    -2.4337  -0.8918   2.0158   3.0929

          k =-1.1250 0.3750-0.3750 (   767 PWs)   bands (ev):

    -2.9709  -0.5897   2.0743   4.1374

          k =-1.6250-0.6250-0.3750 (   763 PWs)   bands (ev):

    -3.4668  -0.6751   3.7409   4.4545

          k =-0.3750 0.3750 1.1250 (   767 PWs)   bands (ev):

    -2.9709  -0.5897   2.0743   4.1374

          k =-0.8750-0.6250 1.1250 (   768 PWs)   bands (ev):

    -5.1061   2.7811   4.6982   4.7626

     highest occupied level (ev):     5.7066

     Writing output data file silicon.10.330.save

                                                                                

     bravais-lattice index     =            2
     lattice parameter (alat)  =      10.3300  a.u.
     unit-cell volume          =     275.5757 (a.u.)^3
     number of atoms/cell      =            2
     number of atomic types    =            1
     kinetic-energy cut-off    =      30.0000  Ry
     charge density cut-off    =     240.0000  Ry
     convergence threshold     =      1.0E-12
     beta                      =       0.7000
     number of iterations used =            4
     Exchange-correlation      = SLA  PW   PBE  PBE ( 1  4  3  4 0 0)


     celldm(1)=   10.33000  celldm(2)=    0.00000  celldm(3)=    0.00000
     celldm(4)=    0.00000  celldm(5)=    0.00000  celldm(6)=    0.00000

     crystal axes: (cart. coord. in units of alat)
               a(1) = ( -0.5000  0.0000  0.5000 )  
               a(2) = (  0.0000  0.5000  0.5000 )  
               a(3) = ( -0.5000  0.5000  0.0000 )  

     reciprocal axes: (cart. coord. in units 2 pi/alat)
               b(1) = ( -1.0000 -1.0000  1.0000 )  
               b(2) = (  1.0000  1.0000  1.0000 )  
               b(3) = ( -1.0000  1.0000 -1.0000 )  


     Atoms inside the unit cell: 

     Cartesian axes

     site n.  atom      mass           positions (alat units)
        1     Si  28.0860   tau(    1) = (    0.00000    0.00000    0.00000  )
        2     Si  28.0860   tau(    2) = (    0.25000    0.25000    0.25000  )

     Computing dynamical matrix for 
                    q = (  -0.5000000  -1.0000000   0.0000000 )

      8 Sym.Ops. (no q -> -q+G )


     G cutoff =  648.7123  (   4316 G-vectors)     FFT grid: ( 40, 40, 40)
     G cutoff =  324.3562  (   1546 G-vectors)  smooth grid: ( 25, 25, 25)
     number of k points=    64

     PseudoPot. # 1 for Si read from file:
     /home/s1333534/quantum_espresso/qe-6.1/pseudo/si_pbe_v1.uspp.F.UPF.txt
     MD5 check sum: a056efeee980c13900f22a371efd63c1
     Pseudo is Ultrasoft + core correction, Zval =  4.0
     Generated by new atomic code, or converted to UPF format
     Using radial grid of  899 points,  6 beta functions with: 
                l(1) =   0
                l(2) =   0
                l(3) =   1
                l(4) =   1
                l(5) =   2
                l(6) =   2
     Q(r) pseudized with  8 coefficients,  rinner =    0.900   0.900   0.900
                                                       0.900   0.900


     Atomic displacements:
     There are   3 irreducible representations

     Representation     1      2 modes -  To be done

     Representation     2      2 modes -  To be done

     Representation     3      2 modes -  To be done



     Alpha used in Ewald sum =   2.5000
     PHONON       :  2m 7.36s CPU     2m43.52s WALL



     Representation #  1 modes #   1  2

     Self-consistent Calculation

      iter #   1 total cpu time :   164.3 secs   av.it.:   5.7
      thresh= 1.000E-02 alpha_mix =  0.700 |ddv_scf|^2 =  7.891E-07

      iter #   2 total cpu time :   165.2 secs   av.it.:  11.8
      thresh= 8.883E-05 alpha_mix =  0.700 |ddv_scf|^2 =  4.467E-07

      iter #   3 total cpu time :   166.1 secs   av.it.:  11.3
      thresh= 6.684E-05 alpha_mix =  0.700 |ddv_scf|^2 =  4.291E-10

      iter #   4 total cpu time :   166.9 secs   av.it.:  11.1
      thresh= 2.072E-06 alpha_mix =  0.700 |ddv_scf|^2 =  1.924E-12

      iter #   5 total cpu time :   167.7 secs   av.it.:  11.2
      thresh= 1.387E-07 alpha_mix =  0.700 |ddv_scf|^2 =  5.051E-14

     End of self-consistent calculation

     Convergence has been achieved 


     Representation #  2 modes #   3  4

     Self-consistent Calculation

      iter #   1 total cpu time :   168.4 secs   av.it.:   5.6
      thresh= 1.000E-02 alpha_mix =  0.700 |ddv_scf|^2 =  1.224E-06

      iter #   2 total cpu time :   169.3 secs   av.it.:  11.8
      thresh= 1.106E-04 alpha_mix =  0.700 |ddv_scf|^2 =  1.659E-06

      iter #   3 total cpu time :   170.1 secs   av.it.:  11.0
      thresh= 1.288E-04 alpha_mix =  0.700 |ddv_scf|^2 =  5.089E-10

      iter #   4 total cpu time :   171.0 secs   av.it.:  11.1
      thresh= 2.256E-06 alpha_mix =  0.700 |ddv_scf|^2 =  7.873E-12

      iter #   5 total cpu time :   171.8 secs   av.it.:  11.3
      thresh= 2.806E-07 alpha_mix =  0.700 |ddv_scf|^2 =  1.304E-13

     End of self-consistent calculation

     Convergence has been achieved 


     Representation #  3 modes #   5  6

     Self-consistent Calculation

      iter #   1 total cpu time :   172.5 secs   av.it.:   5.3
      thresh= 1.000E-02 alpha_mix =  0.700 |ddv_scf|^2 =  3.206E-07

      iter #   2 total cpu time :   173.4 secs   av.it.:  11.8
      thresh= 5.662E-05 alpha_mix =  0.700 |ddv_scf|^2 =  1.873E-07

      iter #   3 total cpu time :   174.2 secs   av.it.:  11.2
      thresh= 4.328E-05 alpha_mix =  0.700 |ddv_scf|^2 =  3.727E-10

      iter #   4 total cpu time :   175.1 secs   av.it.:  11.1
      thresh= 1.931E-06 alpha_mix =  0.700 |ddv_scf|^2 =  4.408E-12

      iter #   5 total cpu time :   175.9 secs   av.it.:  11.2
      thresh= 2.100E-07 alpha_mix =  0.700 |ddv_scf|^2 =  6.057E-14

     End of self-consistent calculation

     Convergence has been achieved 

     Number of q in the star =    6
     List of q in the star:
          1  -0.500000000  -1.000000000   0.000000000
          2   0.000000000   1.000000000   0.500000000
          3   0.000000000  -1.000000000  -0.500000000
          4   0.500000000   1.000000000   0.000000000
          5  -1.000000000  -0.500000000   0.000000000
          6   0.000000000  -0.500000000  -1.000000000

     Diagonalizing the dynamical matrix

     q = (   -0.500000000  -1.000000000   0.000000000 ) 

 **************************************************************************
     freq (    1) =       6.016780 [THz] =     200.698161 [cm-1]
     freq (    2) =       6.016780 [THz] =     200.698161 [cm-1]
     freq (    3) =      10.336587 [THz] =     344.791425 [cm-1]
     freq (    4) =      10.336587 [THz] =     344.791425 [cm-1]
     freq (    5) =      13.576494 [THz] =     452.863102 [cm-1]
     freq (    6) =      13.576494 [THz] =     452.863102 [cm-1]
 **************************************************************************

     init_run     :      1.28s CPU      1.33s WALL (       7 calls)
     electrons    :      7.33s CPU      7.94s WALL (       7 calls)

     Called by init_run:
     wfcinit      :      0.00s CPU      0.02s WALL (       7 calls)
     potinit      :      0.10s CPU      0.12s WALL (       7 calls)

     Called by electrons:
     c_bands      :      7.33s CPU      7.93s WALL (       7 calls)
     v_of_rho     :      0.09s CPU      0.09s WALL (       8 calls)
     newd         :      0.12s CPU      0.13s WALL (       8 calls)

     Called by c_bands:
     init_us_2    :      1.63s CPU      1.57s WALL (   15896 calls)
     cegterg      :      6.12s CPU      6.62s WALL (     796 calls)

     Called by sum_band:

     Called by *egterg:
     h_psi        :     70.68s CPU     75.79s WALL (  154662 calls)
     s_psi        :      5.86s CPU      6.99s WALL (  311582 calls)
     g_psi        :      0.05s CPU      0.07s WALL (    9666 calls)
     cdiaghg      :      0.56s CPU      0.56s WALL (   10462 calls)

     Called by h_psi:
     h_psi:pot    :     70.26s CPU     75.28s WALL (  154662 calls)
     h_psi:calbec :      3.49s CPU      3.99s WALL (  154662 calls)
     vloc_psi     :     62.18s CPU     67.14s WALL (  154662 calls)
     add_vuspsi   :      4.24s CPU      3.68s WALL (  154662 calls)

     General routines
     calbec       :      7.96s CPU      8.33s WALL (  345890 calls)
     fft          :      2.06s CPU      2.15s WALL (    5233 calls)
     ffts         :      0.20s CPU      0.22s WALL (    3316 calls)
     fftw         :     63.85s CPU     67.87s WALL ( 1384490 calls)
     interpolate  :      0.26s CPU      0.28s WALL (     568 calls)
     davcio       :      0.34s CPU      1.34s WALL (   69130 calls)

     Parallel routines
     fft_scatter  :     15.81s CPU     20.11s WALL ( 1393039 calls)

     PHONON       :  2m17.03s CPU     2m56.32s WALL

     INITIALIZATION: 
     phq_setup    :      0.30s CPU      0.80s WALL (       8 calls)
     phq_init     :      6.75s CPU      7.11s WALL (       8 calls)

     phq_init     :      6.75s CPU      7.11s WALL (       8 calls)
     set_drhoc    :      1.83s CPU      1.83s WALL (      24 calls)
     init_vloc    :      0.03s CPU      0.03s WALL (       8 calls)
     init_us_1    :      0.99s CPU      0.99s WALL (       8 calls)
     newd         :      0.12s CPU      0.13s WALL (       8 calls)
     dvanqq       :      1.16s CPU      1.16s WALL (       8 calls)
     drho         :      2.63s CPU      2.71s WALL (       8 calls)

     DYNAMICAL MATRIX:
     dynmat0      :      1.73s CPU      1.88s WALL (       8 calls)
     phqscf       :    115.93s CPU    146.87s WALL (       8 calls)
     dynmatrix    :      0.02s CPU      0.29s WALL (       8 calls)

     phqscf       :    115.93s CPU    146.87s WALL (       8 calls)
     solve_linter :    115.07s CPU    144.18s WALL (      32 calls)
     drhodv       :      0.58s CPU      0.61s WALL (      32 calls)

     dynmat0      :      1.73s CPU      1.88s WALL (       8 calls)
     dynmat_us    :      0.38s CPU      0.39s WALL (       8 calls)
     d2ionq       :      0.04s CPU      0.04s WALL (       8 calls)
     dynmatcc     :      1.30s CPU      1.30s WALL (       8 calls)

     dynmat_us    :      0.38s CPU      0.39s WALL (       8 calls)
     addusdynmat  :      0.00s CPU      0.00s WALL (       8 calls)

     phqscf       :    115.93s CPU    146.87s WALL (       8 calls)
     solve_linter :    115.07s CPU    144.18s WALL (      32 calls)

     solve_linter :    115.07s CPU    144.18s WALL (      32 calls)
     dvqpsi_us    :      2.10s CPU      2.28s WALL (    2508 calls)
     ortho        :      0.86s CPU      0.97s WALL (   13486 calls)
     cgsolve      :     78.18s CPU     84.97s WALL (   13486 calls)
     incdrhoscf   :      6.27s CPU      6.85s WALL (   13486 calls)
     addusddens   :      7.10s CPU      7.17s WALL (     200 calls)
     vpsifft      :      4.40s CPU      4.81s WALL (   10858 calls)
     dv_of_drho   :      1.78s CPU      1.82s WALL (     254 calls)
     mix_pot      :      0.38s CPU     12.26s WALL (     173 calls)
     psymdvscf    :      5.81s CPU      5.87s WALL (     168 calls)
     newdq        :      7.66s CPU      7.67s WALL (     173 calls)
     adddvscf     :      0.46s CPU      0.44s WALL (   10978 calls)
     drhodvus     :      0.01s CPU      0.02s WALL (      32 calls)

     dvqpsi_us    :      2.10s CPU      2.28s WALL (    2508 calls)
     dvqpsi_us_on :      0.90s CPU      0.94s WALL (    2508 calls)

     cgsolve      :     78.18s CPU     84.97s WALL (   13486 calls)
     ch_psi       :     77.07s CPU     83.20s WALL (  143404 calls)

     ch_psi       :     77.07s CPU     83.20s WALL (  143404 calls)
     h_psi        :     70.68s CPU     75.79s WALL (  154662 calls)
     last         :      9.01s CPU      9.15s WALL (  143404 calls)

     h_psi        :     70.68s CPU     75.79s WALL (  154662 calls)
     add_vuspsi   :      4.24s CPU      3.68s WALL (  154662 calls)

     incdrhoscf   :      6.27s CPU      6.85s WALL (   13486 calls)
     addusdbec    :      0.48s CPU      0.51s WALL (   15934 calls)

     drhodvus     :      0.01s CPU      0.02s WALL (      32 calls)

      General routines
     calbec       :      7.96s CPU      8.33s WALL (  345890 calls)
     fft          :      2.06s CPU      2.15s WALL (    5233 calls)
     ffts         :      0.20s CPU      0.22s WALL (    3316 calls)
     fftw         :     63.85s CPU     67.87s WALL ( 1384490 calls)
     davcio       :      0.34s CPU      1.34s WALL (   69130 calls)
     write_rec    :      0.24s CPU     11.90s WALL (     205 calls)


     PHONON       :  2m17.03s CPU     2m56.32s WALL


   This run was terminated on:  15:36: 3  10Nov2017            

=------------------------------------------------------------------------------=
   JOB DONE.
=------------------------------------------------------------------------------=
