
     Program MATDYN v.6.1 (svn rev. 13369) starts on  9Nov2017 at 16:41:55 

     This program is part of the open-source Quantum ESPRESSO suite
     for quantum simulation of materials; please cite
         "P. Giannozzi et al., J. Phys.:Condens. Matter 21 395502 (2009);
          URL http://www.quantum-espresso.org", 
     in publications or presentations arising from this work. More details at
     http://www.quantum-espresso.org/quote

     Parallel version (MPI), running on     4 processors
     R & G space division:  proc/nbgrp/npool/nimage =       4
 mass for atomic type   1 not given; uses mass from file silicon.444.10.357.fc                                                                                                                                                                                                                                           

     MATDYN       :    35.50s CPU        36.54s WALL


   This run was terminated on:  16:42:31   9Nov2017            

=------------------------------------------------------------------------------=
   JOB DONE.
=------------------------------------------------------------------------------=
