
     Program PWSCF v.6.1 (svn rev. 13369) starts on 10Nov2017 at 10:28:38 

     This program is part of the open-source Quantum ESPRESSO suite
     for quantum simulation of materials; please cite
         "P. Giannozzi et al., J. Phys.:Condens. Matter 21 395502 (2009);
          URL http://www.quantum-espresso.org", 
     in publications or presentations arising from this work. More details at
     http://www.quantum-espresso.org/quote

     Parallel version (MPI), running on     4 processors
     R & G space division:  proc/nbgrp/npool/nimage =       4
     Waiting for input...
     Reading input from standard input
     Message from routine read_cards :
     DEPRECATED: no units specified in ATOMIC_POSITIONS card
     Message from routine read_cards :
     ATOMIC_POSITIONS: units set to alat

     Current dimensions of program PWSCF are:
     Max number of different atomic species (ntypx) = 10
     Max number of k-points (npk) =  40000
     Max angular momentum in pseudopotentials (lmaxx) =  3

     Subspace diagonalization in iterative solution of the eigenvalue problem:
     a serial algorithm will be used


     Parallelization info
     --------------------
     sticks:   dense  smooth     PW     G-vecs:    dense   smooth      PW
     Min         214     108     37                 4215     1489     284
     Max         215     109     38                 4218     1492     285
     Sum         859     433    151                16865     5961    1139



     bravais-lattice index     =            2
     lattice parameter (alat)  =      10.2600  a.u.
     unit-cell volume          =     270.0114 (a.u.)^3
     number of atoms/cell      =            2
     number of atomic types    =            1
     number of electrons       =         8.00
     number of Kohn-Sham states=            4
     kinetic-energy cutoff     =      30.0000  Ry
     charge density cutoff     =     240.0000  Ry
     convergence threshold     =      1.0E-08
     mixing beta               =       0.7000
     number of iterations used =            8  plain     mixing
     Exchange-correlation      = SLA  PW   PBE  PBE ( 1  4  3  4 0 0)

     celldm(1)=  10.260000  celldm(2)=   0.000000  celldm(3)=   0.000000
     celldm(4)=   0.000000  celldm(5)=   0.000000  celldm(6)=   0.000000

     crystal axes: (cart. coord. in units of alat)
               a(1) = (  -0.500000   0.000000   0.500000 )  
               a(2) = (   0.000000   0.500000   0.500000 )  
               a(3) = (  -0.500000   0.500000   0.000000 )  

     reciprocal axes: (cart. coord. in units 2 pi/alat)
               b(1) = ( -1.000000 -1.000000  1.000000 )  
               b(2) = (  1.000000  1.000000  1.000000 )  
               b(3) = ( -1.000000  1.000000 -1.000000 )  


     PseudoPot. # 1 for Si read from file:
     /home/max/quantum_espresso/qe-6.1/pseudo/si_pbe_v1.uspp.F.UPF.txt
     MD5 check sum: a056efeee980c13900f22a371efd63c1
     Pseudo is Ultrasoft + core correction, Zval =  4.0
     Generated by new atomic code, or converted to UPF format
     Using radial grid of  899 points,  6 beta functions with: 
                l(1) =   0
                l(2) =   0
                l(3) =   1
                l(4) =   1
                l(5) =   2
                l(6) =   2
     Q(r) pseudized with  8 coefficients,  rinner =    0.900   0.900   0.900
                                                       0.900   0.900

     atomic species   valence    mass     pseudopotential
        Si             4.00    28.08600     Si( 1.00)

     48 Sym. Ops., with inversion, found (24 have fractional translation)



   Cartesian axes

     site n.     atom                  positions (alat units)
         1           Si  tau(   1) = (   0.0000000   0.0000000   0.0000000  )
         2           Si  tau(   2) = (   0.2500000   0.2500000   0.2500000  )

     number of k points=    28
                       cart. coord. in units 2pi/alat
        k(    1) = (  -0.0833333   0.0833333   0.0833333), wk =   0.0185185
        k(    2) = (  -0.2500000   0.2500000  -0.0833333), wk =   0.0555556
        k(    3) = (  -0.4166667   0.4166667  -0.2500000), wk =   0.0555556
        k(    4) = (   0.4166667  -0.4166667   0.5833333), wk =   0.0555556
        k(    5) = (   0.2500000  -0.2500000   0.4166667), wk =   0.0555556
        k(    6) = (   0.0833333  -0.0833333   0.2500000), wk =   0.0555556
        k(    7) = (  -0.0833333   0.4166667   0.0833333), wk =   0.0555556
        k(    8) = (  -0.2500000   0.5833333  -0.0833333), wk =   0.1111111
        k(    9) = (   0.5833333  -0.2500000   0.7500000), wk =   0.1111111
        k(   10) = (   0.4166667  -0.0833333   0.5833333), wk =   0.1111111
        k(   11) = (   0.2500000   0.0833333   0.4166667), wk =   0.1111111
        k(   12) = (  -0.0833333   0.7500000   0.0833333), wk =   0.0555556
        k(   13) = (   0.7500000  -0.0833333   0.9166667), wk =   0.1111111
        k(   14) = (   0.5833333   0.0833333   0.7500000), wk =   0.1111111
        k(   15) = (   0.4166667   0.2500000   0.5833333), wk =   0.1111111
        k(   16) = (  -0.0833333  -0.9166667   0.0833333), wk =   0.0555556
        k(   17) = (  -0.2500000  -0.7500000  -0.0833333), wk =   0.1111111
        k(   18) = (  -0.0833333  -0.5833333   0.0833333), wk =   0.0555556
        k(   19) = (  -0.2500000   0.2500000   0.2500000), wk =   0.0185185
        k(   20) = (  -0.4166667   0.4166667   0.0833333), wk =   0.0555556
        k(   21) = (   0.4166667  -0.4166667   0.9166667), wk =   0.0555556
        k(   22) = (   0.2500000  -0.2500000   0.7500000), wk =   0.0555556
        k(   23) = (  -0.2500000   0.5833333   0.2500000), wk =   0.0555556
        k(   24) = (   0.5833333  -0.2500000   1.0833333), wk =   0.1111111
        k(   25) = (   0.4166667  -0.0833333   0.9166667), wk =   0.1111111
        k(   26) = (  -0.2500000  -1.0833333   0.2500000), wk =   0.0555556
        k(   27) = (  -0.4166667   0.4166667   0.4166667), wk =   0.0185185
        k(   28) = (   0.4166667  -0.4166667   1.2500000), wk =   0.0555556

     Dense  grid:    16865 G-vectors     FFT dimensions: (  36,  36,  36)

     Smooth grid:     5961 G-vectors     FFT dimensions: (  25,  25,  25)

     Estimated max dynamical RAM per process >       3.00MB

     Estimated total allocated dynamical RAM >      12.02MB

     Initial potential from superposition of free atoms

     starting charge    7.99866, renormalised to    8.00000
     Starting wfc are    8 randomized atomic wfcs

     total cpu time spent up to now is        0.5 secs

     per-process dynamical memory:    10.1 Mb

     Self-consistent Calculation

     iteration #  1     ecut=    30.00 Ry     beta=0.70
     Davidson diagonalization with overlap
     ethr =  1.00E-02,  avg # of iterations =  2.0

     Threshold (ethr) on eigenvalues was too large:
     Diagonalizing with lowered threshold

     Davidson diagonalization with overlap
     ethr =  7.03E-04,  avg # of iterations =  1.0

     total cpu time spent up to now is        0.9 secs

     total energy              =     -19.19070383 Ry
     Harris-Foulkes estimate   =     -19.20404018 Ry
     estimated scf accuracy    <       0.05555998 Ry

     iteration #  2     ecut=    30.00 Ry     beta=0.70
     Davidson diagonalization with overlap
     ethr =  6.94E-04,  avg # of iterations =  1.0

     total cpu time spent up to now is        1.5 secs

     total energy              =     -19.19260095 Ry
     Harris-Foulkes estimate   =     -19.19276960 Ry
     estimated scf accuracy    <       0.00243984 Ry

     iteration #  3     ecut=    30.00 Ry     beta=0.70
     Davidson diagonalization with overlap
     ethr =  3.05E-05,  avg # of iterations =  2.0

     total cpu time spent up to now is        1.7 secs

     total energy              =     -19.19294591 Ry
     Harris-Foulkes estimate   =     -19.19296041 Ry
     estimated scf accuracy    <       0.00004597 Ry

     iteration #  4     ecut=    30.00 Ry     beta=0.70
     Davidson diagonalization with overlap
     ethr =  5.75E-07,  avg # of iterations =  3.4

     total cpu time spent up to now is        2.0 secs

     total energy              =     -19.19298769 Ry
     Harris-Foulkes estimate   =     -19.19298884 Ry
     estimated scf accuracy    <       0.00000395 Ry

     iteration #  5     ecut=    30.00 Ry     beta=0.70
     Davidson diagonalization with overlap
     ethr =  4.94E-08,  avg # of iterations =  2.0

     total cpu time spent up to now is        2.3 secs

     End of self-consistent calculation

          k =-0.0833 0.0833 0.0833 (   737 PWs)   bands (ev):

    -5.6726   5.3418   6.0563   6.0563

          k =-0.2500 0.2500-0.0833 (   756 PWs)   bands (ev):

    -5.1941   3.2576   4.8143   5.8463

          k =-0.4167 0.4167-0.2500 (   752 PWs)   bands (ev):

    -4.0970   0.4833   4.3504   5.2064

          k = 0.4167-0.4167 0.5833 (   751 PWs)   bands (ev):

    -3.3940  -0.6672   4.4186   4.8235

          k = 0.2500-0.2500 0.4167 (   758 PWs)   bands (ev):

    -4.5108   1.3337   4.8827   4.9202

          k = 0.0833-0.0833 0.2500 (   755 PWs)   bands (ev):

    -5.4311   4.2730   5.4061   5.5970

          k =-0.0833 0.4167 0.0833 (   750 PWs)   bands (ev):

    -4.9521   3.0749   4.6599   4.6725

          k =-0.2500 0.5833-0.0833 (   750 PWs)   bands (ev):

    -4.0380   1.2291   3.3332   4.2844

          k = 0.5833-0.2500 0.7500 (   746 PWs)   bands (ev):

    -2.9151  -0.5331   2.7310   4.0553

          k = 0.4167-0.0833 0.5833 (   753 PWs)   bands (ev):

    -3.6415   0.5320   2.6865   4.5453

          k = 0.2500 0.0833 0.4167 (   756 PWs)   bands (ev):

    -4.7257   2.2316   4.0340   5.2185

          k =-0.0833 0.7500 0.0833 (   752 PWs)   bands (ev):

    -3.3238   0.4027   3.2962   3.6393

          k = 0.7500-0.0833 0.9167 (   745 PWs)   bands (ev):

    -2.1222  -0.9425   2.4478   3.2291

          k = 0.5833 0.0833 0.7500 (   743 PWs)   bands (ev):

    -2.4934  -0.6086   1.9626   3.7778

          k = 0.4167 0.2500 0.5833 (   752 PWs)   bands (ev):

    -3.5282  -0.1612   3.6374   4.6441

          k =-0.0833-0.9167 0.0833 (   749 PWs)   bands (ev):

    -2.2151  -0.9509   3.0251   3.4231

          k =-0.2500-0.7500-0.0833 (   750 PWs)   bands (ev):

    -3.1541   0.1777   2.7726   3.5711

          k =-0.0833-0.5833 0.0833 (   743 PWs)   bands (ev):

    -4.2446   1.7727   3.8446   4.0633

          k =-0.2500 0.2500 0.2500 (   754 PWs)   bands (ev):

    -4.9637   2.2730   5.4400   5.4400

          k =-0.4167 0.4167 0.0833 (   748 PWs)   bands (ev):

    -4.2817   1.3406   3.2972   5.2706

          k = 0.4167-0.4167 0.9167 (   749 PWs)   bands (ev):

    -3.0969  -0.1039   2.1834   4.4795

          k = 0.2500-0.2500 0.7500 (   748 PWs)   bands (ev):

    -3.0447  -0.1833   2.6660   3.9946

          k =-0.2500 0.5833 0.2500 (   754 PWs)   bands (ev):

    -3.8558   0.5284   3.7681   4.3696

          k = 0.5833-0.2500 1.0833 (   746 PWs)   bands (ev):

    -2.8490  -0.2146   2.2835   3.5680

          k = 0.4167-0.0833 0.9167 (   745 PWs)   bands (ev):

    -2.0140  -0.9503   2.1161   2.8962

          k =-0.2500-1.0833 0.2500 (   744 PWs)   bands (ev):

    -2.2253  -0.8575   1.9893   3.7992

          k =-0.4167 0.4167 0.4167 (   760 PWs)   bands (ev):

    -3.7657  -0.2648   5.0506   5.0506

          k = 0.4167-0.4167 1.2500 (   749 PWs)   bands (ev):

    -3.1576  -0.5662   3.2093   4.6072

     highest occupied level (ev):     6.0563

!    total energy              =     -19.19298820 Ry
     Harris-Foulkes estimate   =     -19.19298819 Ry
     estimated scf accuracy    <          1.0E-08 Ry

     The total energy is the sum of the following terms:

     one-electron contribution =       5.11491972 Ry
     hartree contribution      =       1.11505567 Ry
     xc contribution           =      -8.62203402 Ry
     ewald contribution        =     -16.80092958 Ry

     convergence has been achieved in   5 iterations

     Writing output data file silicon.10.26.save

     init_run     :      0.35s CPU      0.39s WALL (       1 calls)
     electrons    :      1.17s CPU      1.79s WALL (       1 calls)

     Called by init_run:
     wfcinit      :      0.07s CPU      0.09s WALL (       1 calls)
     potinit      :      0.02s CPU      0.02s WALL (       1 calls)

     Called by electrons:
     c_bands      :      0.71s CPU      1.06s WALL (       6 calls)
     sum_band     :      0.28s CPU      0.45s WALL (       6 calls)
     v_of_rho     :      0.07s CPU      0.12s WALL (       6 calls)
     newd         :      0.13s CPU      0.17s WALL (       6 calls)
     mix_rho      :      0.00s CPU      0.01s WALL (       6 calls)

     Called by c_bands:
     init_us_2    :      0.04s CPU      0.05s WALL (     364 calls)
     cegterg      :      0.60s CPU      0.93s WALL (     168 calls)

     Called by sum_band:
     sum_band:bec :      0.00s CPU      0.00s WALL (     168 calls)
     addusdens    :      0.13s CPU      0.19s WALL (       6 calls)

     Called by *egterg:
     h_psi        :      0.52s CPU      0.76s WALL (     513 calls)
     s_psi        :      0.04s CPU      0.05s WALL (     513 calls)
     g_psi        :      0.00s CPU      0.00s WALL (     317 calls)
     cdiaghg      :      0.03s CPU      0.05s WALL (     457 calls)

     Called by h_psi:
     h_psi:pot    :      0.52s CPU      0.76s WALL (     513 calls)
     h_psi:calbec :      0.06s CPU      0.10s WALL (     513 calls)
     vloc_psi     :      0.42s CPU      0.62s WALL (     513 calls)
     add_vuspsi   :      0.04s CPU      0.05s WALL (     513 calls)

     General routines
     calbec       :      0.07s CPU      0.13s WALL (     681 calls)
     fft          :      0.07s CPU      0.13s WALL (      96 calls)
     ffts         :      0.00s CPU      0.00s WALL (      12 calls)
     fftw         :      0.43s CPU      0.70s WALL (    4622 calls)
     interpolate  :      0.01s CPU      0.01s WALL (      12 calls)
     davcio       :      0.00s CPU      0.00s WALL (      28 calls)

     Parallel routines
     fft_scatter  :      0.23s CPU      0.51s WALL (    4730 calls)

     PWSCF        :     1.74s CPU         2.40s WALL


   This run was terminated on:  10:28:41  10Nov2017            

=------------------------------------------------------------------------------=
   JOB DONE.
=------------------------------------------------------------------------------=
