
     Program PHONON v.6.1 (svn rev. 13369) starts on  9Nov2017 at 12:19:53 

     This program is part of the open-source Quantum ESPRESSO suite
     for quantum simulation of materials; please cite
         "P. Giannozzi et al., J. Phys.:Condens. Matter 21 395502 (2009);
          URL http://www.quantum-espresso.org", 
     in publications or presentations arising from this work. More details at
     http://www.quantum-espresso.org/quote

     Parallel version (MPI), running on     4 processors
     R & G space division:  proc/nbgrp/npool/nimage =       4

     Reading data from directory:
     ./silicon.10.331.save

   Info: using nr1, nr2, nr3 values from input

   Info: using nr1, nr2, nr3 values from input

     IMPORTANT: XC functional enforced from input :
     Exchange-correlation      = SLA  PW   PBE  PBE ( 1  4  3  4 0 0)
     Any further DFT definition will be discarded
     Please, verify this is what you really want


     Parallelization info
     --------------------
     sticks:   dense  smooth     PW     G-vecs:    dense   smooth      PW
     Min          63      63     22                  684      684     140
     Max          64      64     23                  688      688     141
     Sum         253     253     91                 2741     2741     561


     Check: negative/imaginary core charge=   -0.000005    0.000000


     Dynamical matrices for ( 4, 4, 4)  uniform grid of q-points
     (   8q-points):
       N         xq(1)         xq(2)         xq(3) 
       1   0.000000000   0.000000000   0.000000000
       2  -0.250000000   0.250000000  -0.250000000
       3   0.500000000  -0.500000000   0.500000000
       4   0.000000000   0.500000000   0.000000000
       5   0.750000000  -0.250000000   0.750000000
       6   0.500000000   0.000000000   0.500000000
       7   0.000000000  -1.000000000   0.000000000
       8  -0.500000000  -1.000000000   0.000000000

     Calculation of q =    0.0000000   0.0000000   0.0000000

                                                                                

     bravais-lattice index     =            2
     lattice parameter (alat)  =      10.3310  a.u.
     unit-cell volume          =     275.6558 (a.u.)^3
     number of atoms/cell      =            2
     number of atomic types    =            1
     kinetic-energy cut-off    =      18.0000  Ry
     charge density cut-off    =      72.0000  Ry
     convergence threshold     =      1.0E-12
     beta                      =       0.7000
     number of iterations used =            4
     Exchange-correlation      = SLA  PW   PBE  PBE ( 1  4  3  4 0 0)


     celldm(1)=   10.33100  celldm(2)=    0.00000  celldm(3)=    0.00000
     celldm(4)=    0.00000  celldm(5)=    0.00000  celldm(6)=    0.00000

     crystal axes: (cart. coord. in units of alat)
               a(1) = ( -0.5000  0.0000  0.5000 )  
               a(2) = (  0.0000  0.5000  0.5000 )  
               a(3) = ( -0.5000  0.5000  0.0000 )  

     reciprocal axes: (cart. coord. in units 2 pi/alat)
               b(1) = ( -1.0000 -1.0000  1.0000 )  
               b(2) = (  1.0000  1.0000  1.0000 )  
               b(3) = ( -1.0000  1.0000 -1.0000 )  


     Atoms inside the unit cell: 

     Cartesian axes

     site n.  atom      mass           positions (alat units)
        1     Si  28.0860   tau(    1) = (    0.00000    0.00000    0.00000  )
        2     Si  28.0860   tau(    2) = (    0.25000    0.25000    0.25000  )

     Computing dynamical matrix for 
                    q = (   0.0000000   0.0000000   0.0000000 )

     49 Sym.Ops. (with q -> -q+G )


     G cutoff =  194.6514  (    685 G-vectors)     FFT grid: ( 20, 20, 20)
     number of k points=    10

     PseudoPot. # 1 for Si read from file:
     /home/max/quantum_espresso/qe-6.1/pseudo/si_pbe_v1.uspp.F.UPF.txt
     MD5 check sum: a056efeee980c13900f22a371efd63c1
     Pseudo is Ultrasoft + core correction, Zval =  4.0
     Generated by new atomic code, or converted to UPF format
     Using radial grid of  899 points,  6 beta functions with: 
                l(1) =   0
                l(2) =   0
                l(3) =   1
                l(4) =   1
                l(5) =   2
                l(6) =   2
     Q(r) pseudized with  8 coefficients,  rinner =    0.900   0.900   0.900
                                                       0.900   0.900

     Mode symmetry, O_h (m-3m)  point group:


     Electric field:
     Dielectric constant
     Born effective charges in two ways 


     Atomic displacements:
     There are   2 irreducible representations

     Representation     1      3 modes -T_2g G_25' G_5+  To be done

     Representation     2      3 modes -T_1u G_15  G_4-  To be done



     Alpha used in Ewald sum =   0.7000
     PHONON       :     0.42s CPU         0.43s WALL


     Electric Fields Calculation

      iter #   1 total cpu time :     1.2 secs   av.it.:   5.6
      thresh= 1.000E-02 alpha_mix =  0.700 |ddv_scf|^2 =  9.057E-07

      iter #   2 total cpu time :     1.4 secs   av.it.:   9.9
      thresh= 9.517E-05 alpha_mix =  0.700 |ddv_scf|^2 =  5.572E-08

      iter #   3 total cpu time :     1.6 secs   av.it.:   9.8
      thresh= 2.361E-05 alpha_mix =  0.700 |ddv_scf|^2 =  4.231E-09

      iter #   4 total cpu time :     1.8 secs   av.it.:   8.9
      thresh= 6.504E-06 alpha_mix =  0.700 |ddv_scf|^2 =  2.494E-11

      iter #   5 total cpu time :     2.0 secs   av.it.:   9.2
      thresh= 4.994E-07 alpha_mix =  0.700 |ddv_scf|^2 =  1.326E-14

     End of electric fields calculation

          Dielectric constant in cartesian axis 

          (      13.865897564       0.000000000       0.000000000 )
          (      -0.000000000      13.865897564       0.000000000 )
          (       0.000000000       0.000000000      13.865897564 )

          Effective charges (d Force / dE) in cartesian axis

           atom      1   Si 
      Ex  (       -0.03111        0.00000        0.00000 )
      Ey  (        0.00000       -0.03111       -0.00000 )
      Ez  (        0.00000       -0.00000       -0.03111 )
           atom      2   Si 
      Ex  (       -0.03111       -0.00000       -0.00000 )
      Ey  (       -0.00000       -0.03111        0.00000 )
      Ez  (       -0.00000        0.00000       -0.03111 )


     Representation #  1 modes #   1  2  3

     Self-consistent Calculation

      iter #   1 total cpu time :     2.5 secs   av.it.:   4.9
      thresh= 1.000E-02 alpha_mix =  0.700 |ddv_scf|^2 =  2.251E-07

      iter #   2 total cpu time :     2.7 secs   av.it.:   9.7
      thresh= 4.744E-05 alpha_mix =  0.700 |ddv_scf|^2 =  1.394E-08

      iter #   3 total cpu time :     3.0 secs   av.it.:   9.3
      thresh= 1.181E-05 alpha_mix =  0.700 |ddv_scf|^2 =  8.590E-10

      iter #   4 total cpu time :     3.5 secs   av.it.:   9.0
      thresh= 2.931E-06 alpha_mix =  0.700 |ddv_scf|^2 =  1.887E-12

      iter #   5 total cpu time :     3.8 secs   av.it.:   9.4
      thresh= 1.374E-07 alpha_mix =  0.700 |ddv_scf|^2 =  1.230E-14

     End of self-consistent calculation

     Convergence has been achieved 


     Representation #  2 modes #   4  5  6

     Self-consistent Calculation

      iter #   1 total cpu time :     4.0 secs   av.it.:   5.0
      thresh= 1.000E-02 alpha_mix =  0.700 |ddv_scf|^2 =  1.707E-07

      iter #   2 total cpu time :     4.2 secs   av.it.:   9.6
      thresh= 4.132E-05 alpha_mix =  0.700 |ddv_scf|^2 =  1.332E-08

      iter #   3 total cpu time :     4.4 secs   av.it.:   9.3
      thresh= 1.154E-05 alpha_mix =  0.700 |ddv_scf|^2 =  8.486E-10

      iter #   4 total cpu time :     4.6 secs   av.it.:   9.5
      thresh= 2.913E-06 alpha_mix =  0.700 |ddv_scf|^2 =  5.085E-12

      iter #   5 total cpu time :     4.9 secs   av.it.:   9.0
      thresh= 2.255E-07 alpha_mix =  0.700 |ddv_scf|^2 =  4.434E-15

     End of self-consistent calculation

     Convergence has been achieved 

     Number of q in the star =    1
     List of q in the star:
          1   0.000000000   0.000000000   0.000000000

          Dielectric constant in cartesian axis 

          (      13.865897564       0.000000000       0.000000000 )
          (      -0.000000000      13.865897564       0.000000000 )
          (       0.000000000       0.000000000      13.865897564 )

          Effective charges (d Force / dE) in cartesian axis

           atom      1   Si 
      Ex  (       -0.03111        0.00000        0.00000 )
      Ey  (        0.00000       -0.03111       -0.00000 )
      Ez  (        0.00000       -0.00000       -0.03111 )
           atom      2   Si 
      Ex  (       -0.03111       -0.00000       -0.00000 )
      Ey  (       -0.00000       -0.03111        0.00000 )
      Ez  (       -0.00000        0.00000       -0.03111 )

          Effective charges (d P / du) in cartesian axis 

           atom      1   Si 
      Px  (       -0.07240       -0.00000        0.00000 )
      Py  (       -0.00000       -0.07240        0.00000 )
      Pz  (        0.00000        0.00000       -0.07240 )
           atom      2   Si 
      Px  (       -0.07240        0.00000        0.00000 )
      Py  (        0.00000       -0.07240       -0.00000 )
      Pz  (        0.00000       -0.00000       -0.07240 )

     Diagonalizing the dynamical matrix

     q = (    0.000000000   0.000000000   0.000000000 ) 

 **************************************************************************
     freq (    1) =       1.947694 [THz] =      64.968093 [cm-1]
     freq (    2) =       1.947694 [THz] =      64.968093 [cm-1]
     freq (    3) =       1.947694 [THz] =      64.968093 [cm-1]
     freq (    4) =      15.022783 [THz] =     501.106094 [cm-1]
     freq (    5) =      15.022783 [THz] =     501.106094 [cm-1]
     freq (    6) =      15.022783 [THz] =     501.106094 [cm-1]
 **************************************************************************

     Mode symmetry, O_h (m-3m)  point group:

     freq (  1 -  3) =         65.0  [cm-1]   --> T_1u G_15  G_4- I  
     freq (  4 -  6) =        501.1  [cm-1]   --> T_2g G_25' G_5+ R  

     Calculation of q =   -0.2500000   0.2500000  -0.2500000

   Info: using nr1, nr2, nr3 values from input

   Info: using nr1, nr2, nr3 values from input

     Parallelization info
     --------------------
     sticks:   dense  smooth     PW     G-vecs:    dense   smooth      PW
     Min          63      63     24                  684      684     161
     Max          64      64     25                  688      688     162
     Sum         253     253     97                 2741     2741     645



     bravais-lattice index     =            2
     lattice parameter (alat)  =      10.3310  a.u.
     unit-cell volume          =     275.6558 (a.u.)^3
     number of atoms/cell      =            2
     number of atomic types    =            1
     number of electrons       =         8.00
     number of Kohn-Sham states=            4
     kinetic-energy cutoff     =      18.0000  Ry
     charge density cutoff     =      72.0000  Ry
     Exchange-correlation      = SLA  PW   PBE  PBE ( 1  4  3  4 0 0)

     celldm(1)=  10.331000  celldm(2)=   0.000000  celldm(3)=   0.000000
     celldm(4)=   0.000000  celldm(5)=   0.000000  celldm(6)=   0.000000

     crystal axes: (cart. coord. in units of alat)
               a(1) = (  -0.500000   0.000000   0.500000 )  
               a(2) = (   0.000000   0.500000   0.500000 )  
               a(3) = (  -0.500000   0.500000   0.000000 )  

     reciprocal axes: (cart. coord. in units 2 pi/alat)
               b(1) = ( -1.000000 -1.000000  1.000000 )  
               b(2) = (  1.000000  1.000000  1.000000 )  
               b(3) = ( -1.000000  1.000000 -1.000000 )  


     PseudoPot. # 1 for Si read from file:
     /home/max/quantum_espresso/qe-6.1/pseudo/si_pbe_v1.uspp.F.UPF.txt
     MD5 check sum: a056efeee980c13900f22a371efd63c1
     Pseudo is Ultrasoft + core correction, Zval =  4.0
     Generated by new atomic code, or converted to UPF format
     Using radial grid of  899 points,  6 beta functions with: 
                l(1) =   0
                l(2) =   0
                l(3) =   1
                l(4) =   1
                l(5) =   2
                l(6) =   2
     Q(r) pseudized with  8 coefficients,  rinner =    0.900   0.900   0.900
                                                       0.900   0.900

     atomic species   valence    mass     pseudopotential
        Si             4.00    28.08600     Si( 1.00)

     48 Sym. Ops., with inversion, found



   Cartesian axes

     site n.     atom                  positions (alat units)
         1           Si  tau(   1) = (   0.0000000   0.0000000   0.0000000  )
         2           Si  tau(   2) = (   0.2500000   0.2500000   0.2500000  )

     number of k points=   120

     Number of k-points >= 100: set verbosity='high' to print them.

     Dense  grid:     2741 G-vectors     FFT dimensions: (  20,  20,  20)

     Estimated max dynamical RAM per process >       0.33MB

     Estimated total allocated dynamical RAM >       1.30MB

     Check: negative/imaginary core charge=   -0.000005    0.000000

     The potential is recalculated from file :
     ./_ph0/silicon.10.331.save/charge-density.dat

     Starting wfc are    8 atomic wfcs

     Band Structure Calculation
     Davidson diagonalization with overlap

     ethr =  1.25E-10,  avg # of iterations = 11.7

     total cpu time spent up to now is        0.9 secs

     End of band structure calculation

     Number of k-points >= 100: set verbosity='high' to print the bands.

     highest occupied level (ev):     5.7074

     Writing output data file silicon.10.331.save

                                                                                

     bravais-lattice index     =            2
     lattice parameter (alat)  =      10.3310  a.u.
     unit-cell volume          =     275.6558 (a.u.)^3
     number of atoms/cell      =            2
     number of atomic types    =            1
     kinetic-energy cut-off    =      18.0000  Ry
     charge density cut-off    =      72.0000  Ry
     convergence threshold     =      1.0E-12
     beta                      =       0.7000
     number of iterations used =            4
     Exchange-correlation      = SLA  PW   PBE  PBE ( 1  4  3  4 0 0)


     celldm(1)=   10.33100  celldm(2)=    0.00000  celldm(3)=    0.00000
     celldm(4)=    0.00000  celldm(5)=    0.00000  celldm(6)=    0.00000

     crystal axes: (cart. coord. in units of alat)
               a(1) = ( -0.5000  0.0000  0.5000 )  
               a(2) = (  0.0000  0.5000  0.5000 )  
               a(3) = ( -0.5000  0.5000  0.0000 )  

     reciprocal axes: (cart. coord. in units 2 pi/alat)
               b(1) = ( -1.0000 -1.0000  1.0000 )  
               b(2) = (  1.0000  1.0000  1.0000 )  
               b(3) = ( -1.0000  1.0000 -1.0000 )  


     Atoms inside the unit cell: 

     Cartesian axes

     site n.  atom      mass           positions (alat units)
        1     Si  28.0860   tau(    1) = (    0.00000    0.00000    0.00000  )
        2     Si  28.0860   tau(    2) = (    0.25000    0.25000    0.25000  )

     Computing dynamical matrix for 
                    q = (  -0.2500000   0.2500000  -0.2500000 )

      6 Sym.Ops. (no q -> -q+G )


     G cutoff =  194.6514  (    685 G-vectors)     FFT grid: ( 20, 20, 20)
     number of k points=   120

     PseudoPot. # 1 for Si read from file:
     /home/max/quantum_espresso/qe-6.1/pseudo/si_pbe_v1.uspp.F.UPF.txt
     MD5 check sum: a056efeee980c13900f22a371efd63c1
     Pseudo is Ultrasoft + core correction, Zval =  4.0
     Generated by new atomic code, or converted to UPF format
     Using radial grid of  899 points,  6 beta functions with: 
                l(1) =   0
                l(2) =   0
                l(3) =   1
                l(4) =   1
                l(5) =   2
                l(6) =   2
     Q(r) pseudized with  8 coefficients,  rinner =    0.900   0.900   0.900
                                                       0.900   0.900

     Mode symmetry, C_3v (3m)   point group:


     Atomic displacements:
     There are   4 irreducible representations

     Representation     1      1 modes -A_1  L_1  To be done

     Representation     2      1 modes -A_1  L_1  To be done

     Representation     3      2 modes -E    L_3  To be done

     Representation     4      2 modes -E    L_3  To be done



     Alpha used in Ewald sum =   0.7000
     PHONON       :     6.05s CPU         6.60s WALL



     Representation #  1 mode #   1

     Self-consistent Calculation

      iter #   1 total cpu time :     6.9 secs   av.it.:   5.5
      thresh= 1.000E-02 alpha_mix =  0.700 |ddv_scf|^2 =  2.472E-03

      iter #   2 total cpu time :     7.5 secs   av.it.:   7.5
      thresh= 4.972E-03 alpha_mix =  0.700 |ddv_scf|^2 =  3.730E-02

      iter #   3 total cpu time :     7.8 secs   av.it.:   6.3
      thresh= 1.000E-02 alpha_mix =  0.700 |ddv_scf|^2 =  1.715E-06

      iter #   4 total cpu time :     8.1 secs   av.it.:   8.2
      thresh= 1.309E-04 alpha_mix =  0.700 |ddv_scf|^2 =  1.142E-07

      iter #   5 total cpu time :     8.4 secs   av.it.:   8.1
      thresh= 3.379E-05 alpha_mix =  0.700 |ddv_scf|^2 =  4.406E-09

      iter #   6 total cpu time :     8.7 secs   av.it.:   8.0
      thresh= 6.637E-06 alpha_mix =  0.700 |ddv_scf|^2 =  5.264E-09

      iter #   7 total cpu time :     9.3 secs   av.it.:   6.0
      thresh= 7.255E-06 alpha_mix =  0.700 |ddv_scf|^2 =  3.870E-10

      iter #   8 total cpu time :     9.6 secs   av.it.:   7.3
      thresh= 1.967E-06 alpha_mix =  0.700 |ddv_scf|^2 =  3.602E-12

      iter #   9 total cpu time :     9.8 secs   av.it.:   7.1
      thresh= 1.898E-07 alpha_mix =  0.700 |ddv_scf|^2 =  1.295E-13

     End of self-consistent calculation

     Convergence has been achieved 


     Representation #  2 mode #   2

     Self-consistent Calculation

      iter #   1 total cpu time :    10.1 secs   av.it.:   5.5
      thresh= 1.000E-02 alpha_mix =  0.700 |ddv_scf|^2 =  2.472E-03

      iter #   2 total cpu time :    10.4 secs   av.it.:   7.5
      thresh= 4.972E-03 alpha_mix =  0.700 |ddv_scf|^2 =  3.730E-02

      iter #   3 total cpu time :    10.7 secs   av.it.:   6.3
      thresh= 1.000E-02 alpha_mix =  0.700 |ddv_scf|^2 =  1.715E-06

      iter #   4 total cpu time :    11.4 secs   av.it.:   8.2
      thresh= 1.309E-04 alpha_mix =  0.700 |ddv_scf|^2 =  1.142E-07

      iter #   5 total cpu time :    11.7 secs   av.it.:   8.1
      thresh= 3.379E-05 alpha_mix =  0.700 |ddv_scf|^2 =  4.406E-09

      iter #   6 total cpu time :    12.0 secs   av.it.:   8.0
      thresh= 6.637E-06 alpha_mix =  0.700 |ddv_scf|^2 =  5.264E-09

      iter #   7 total cpu time :    12.2 secs   av.it.:   6.0
      thresh= 7.255E-06 alpha_mix =  0.700 |ddv_scf|^2 =  3.870E-10

      iter #   8 total cpu time :    12.5 secs   av.it.:   7.3
      thresh= 1.967E-06 alpha_mix =  0.700 |ddv_scf|^2 =  3.602E-12

      iter #   9 total cpu time :    12.8 secs   av.it.:   7.1
      thresh= 1.898E-07 alpha_mix =  0.700 |ddv_scf|^2 =  1.295E-13

     End of self-consistent calculation

     Convergence has been achieved 


     Representation #  3 modes #   3  4

     Self-consistent Calculation

      iter #   1 total cpu time :    13.6 secs   av.it.:   4.9
      thresh= 1.000E-02 alpha_mix =  0.700 |ddv_scf|^2 =  5.562E-07

      iter #   2 total cpu time :    14.3 secs   av.it.:   9.5
      thresh= 7.458E-05 alpha_mix =  0.700 |ddv_scf|^2 =  4.106E-08

      iter #   3 total cpu time :    15.3 secs   av.it.:   9.2
      thresh= 2.026E-05 alpha_mix =  0.700 |ddv_scf|^2 =  3.526E-09

      iter #   4 total cpu time :    15.9 secs   av.it.:   9.0
      thresh= 5.938E-06 alpha_mix =  0.700 |ddv_scf|^2 =  1.085E-11

      iter #   5 total cpu time :    16.6 secs   av.it.:   9.1
      thresh= 3.293E-07 alpha_mix =  0.700 |ddv_scf|^2 =  4.939E-13

     End of self-consistent calculation

     Convergence has been achieved 


     Representation #  4 modes #   5  6

     Self-consistent Calculation

      iter #   1 total cpu time :    17.4 secs   av.it.:   5.0
      thresh= 1.000E-02 alpha_mix =  0.700 |ddv_scf|^2 =  5.561E-07

      iter #   2 total cpu time :    18.1 secs   av.it.:   9.6
      thresh= 7.457E-05 alpha_mix =  0.700 |ddv_scf|^2 =  4.103E-08

      iter #   3 total cpu time :    18.8 secs   av.it.:   9.4
      thresh= 2.026E-05 alpha_mix =  0.700 |ddv_scf|^2 =  3.524E-09

      iter #   4 total cpu time :    19.8 secs   av.it.:   9.1
      thresh= 5.936E-06 alpha_mix =  0.700 |ddv_scf|^2 =  1.085E-11

      iter #   5 total cpu time :    20.5 secs   av.it.:   9.3
      thresh= 3.294E-07 alpha_mix =  0.700 |ddv_scf|^2 =  4.941E-13

     End of self-consistent calculation

     Convergence has been achieved 

     Number of q in the star =    8
     List of q in the star:
          1  -0.250000000   0.250000000  -0.250000000
          2   0.250000000  -0.250000000  -0.250000000
          3   0.250000000  -0.250000000   0.250000000
          4   0.250000000   0.250000000   0.250000000
          5  -0.250000000  -0.250000000  -0.250000000
          6  -0.250000000  -0.250000000   0.250000000
          7  -0.250000000   0.250000000   0.250000000
          8   0.250000000   0.250000000  -0.250000000

     Diagonalizing the dynamical matrix

     q = (   -0.250000000   0.250000000  -0.250000000 ) 

 **************************************************************************
     freq (    1) =       3.390765 [THz] =     113.103740 [cm-1]
     freq (    2) =       3.390765 [THz] =     113.103740 [cm-1]
     freq (    3) =       6.940151 [THz] =     231.498527 [cm-1]
     freq (    4) =      14.096681 [THz] =     470.214665 [cm-1]
     freq (    5) =      14.409381 [THz] =     480.645212 [cm-1]
     freq (    6) =      14.409381 [THz] =     480.645212 [cm-1]
 **************************************************************************

     Mode symmetry, C_3v (3m)   point group:

     freq (  1 -  2) =        113.1  [cm-1]   --> E    L_3           
     freq (  3 -  3) =        231.5  [cm-1]   --> A_1  L_1           
     freq (  4 -  4) =        470.2  [cm-1]   --> A_1  L_1           
     freq (  5 -  6) =        480.6  [cm-1]   --> E    L_3           

     Calculation of q =    0.5000000  -0.5000000   0.5000000

   Info: using nr1, nr2, nr3 values from input

   Info: using nr1, nr2, nr3 values from input

     Parallelization info
     --------------------
     sticks:   dense  smooth     PW     G-vecs:    dense   smooth      PW
     Min          63      63     27                  684      684     186
     Max          64      64     28                  688      688     189
     Sum         253     253    109                 2741     2741     749



     bravais-lattice index     =            2
     lattice parameter (alat)  =      10.3310  a.u.
     unit-cell volume          =     275.6558 (a.u.)^3
     number of atoms/cell      =            2
     number of atomic types    =            1
     number of electrons       =         8.00
     number of Kohn-Sham states=            4
     kinetic-energy cutoff     =      18.0000  Ry
     charge density cutoff     =      72.0000  Ry
     Exchange-correlation      = SLA  PW   PBE  PBE ( 1  4  3  4 0 0)

     celldm(1)=  10.331000  celldm(2)=   0.000000  celldm(3)=   0.000000
     celldm(4)=   0.000000  celldm(5)=   0.000000  celldm(6)=   0.000000

     crystal axes: (cart. coord. in units of alat)
               a(1) = (  -0.500000   0.000000   0.500000 )  
               a(2) = (   0.000000   0.500000   0.500000 )  
               a(3) = (  -0.500000   0.500000   0.000000 )  

     reciprocal axes: (cart. coord. in units 2 pi/alat)
               b(1) = ( -1.000000 -1.000000  1.000000 )  
               b(2) = (  1.000000  1.000000  1.000000 )  
               b(3) = ( -1.000000  1.000000 -1.000000 )  


     PseudoPot. # 1 for Si read from file:
     /home/max/quantum_espresso/qe-6.1/pseudo/si_pbe_v1.uspp.F.UPF.txt
     MD5 check sum: a056efeee980c13900f22a371efd63c1
     Pseudo is Ultrasoft + core correction, Zval =  4.0
     Generated by new atomic code, or converted to UPF format
     Using radial grid of  899 points,  6 beta functions with: 
                l(1) =   0
                l(2) =   0
                l(3) =   1
                l(4) =   1
                l(5) =   2
                l(6) =   2
     Q(r) pseudized with  8 coefficients,  rinner =    0.900   0.900   0.900
                                                       0.900   0.900

     atomic species   valence    mass     pseudopotential
        Si             4.00    28.08600     Si( 1.00)

     48 Sym. Ops., with inversion, found



   Cartesian axes

     site n.     atom                  positions (alat units)
         1           Si  tau(   1) = (   0.0000000   0.0000000   0.0000000  )
         2           Si  tau(   2) = (   0.2500000   0.2500000   0.2500000  )

     number of k points=    60
                       cart. coord. in units 2pi/alat
        k(    1) = (  -0.1250000   0.1250000   0.1250000), wk =   0.0468750
        k(    2) = (   0.3750000  -0.3750000   0.6250000), wk =   0.0000000
        k(    3) = (  -0.3750000   0.3750000  -0.1250000), wk =   0.0468750
        k(    4) = (   0.1250000  -0.1250000   0.3750000), wk =   0.0000000
        k(    5) = (   0.3750000  -0.3750000   0.6250000), wk =   0.0468750
        k(    6) = (   0.8750000  -0.8750000   1.1250000), wk =   0.0000000
        k(    7) = (   0.1250000  -0.1250000   0.3750000), wk =   0.0468750
        k(    8) = (   0.6250000  -0.6250000   0.8750000), wk =   0.0000000
        k(    9) = (  -0.1250000   0.6250000   0.1250000), wk =   0.0937500
        k(   10) = (   0.3750000   0.1250000   0.6250000), wk =   0.0000000
        k(   11) = (   0.6250000  -0.1250000   0.8750000), wk =   0.0937500
        k(   12) = (   1.1250000  -0.6250000   1.3750000), wk =   0.0000000
        k(   13) = (   0.3750000   0.1250000   0.6250000), wk =   0.0937500
        k(   14) = (   0.8750000  -0.3750000   1.1250000), wk =   0.0000000
        k(   15) = (  -0.1250000  -0.8750000   0.1250000), wk =   0.0937500
        k(   16) = (   0.3750000  -1.3750000   0.6250000), wk =   0.0000000
        k(   17) = (  -0.3750000   0.3750000   0.3750000), wk =   0.0468750
        k(   18) = (   0.1250000  -0.1250000   0.8750000), wk =   0.0000000
        k(   19) = (   0.3750000  -0.3750000   1.1250000), wk =   0.0468750
        k(   20) = (   0.8750000  -0.8750000   1.6250000), wk =   0.0000000
        k(   21) = (   0.1250000  -0.1250000   0.1250000), wk =   0.0156250
        k(   22) = (   0.6250000  -0.6250000   0.6250000), wk =   0.0000000
        k(   23) = (  -0.3750000  -0.3750000  -0.1250000), wk =   0.0937500
        k(   24) = (   0.1250000  -0.8750000   0.3750000), wk =   0.0000000
        k(   25) = (  -0.1250000  -0.3750000   0.3750000), wk =   0.0468750
        k(   26) = (   0.3750000  -0.8750000   0.8750000), wk =   0.0000000
        k(   27) = (   0.3750000   0.3750000   0.6250000), wk =   0.0937500
        k(   28) = (   0.8750000  -0.1250000   1.1250000), wk =   0.0000000
        k(   29) = (   0.6250000   0.3750000  -0.3750000), wk =   0.0468750
        k(   30) = (   1.1250000  -0.1250000   0.1250000), wk =   0.0000000
        k(   31) = (   0.1250000   0.1250000   0.3750000), wk =   0.0937500
        k(   32) = (   0.6250000  -0.3750000   0.8750000), wk =   0.0000000
        k(   33) = (   0.3750000   0.1250000  -0.1250000), wk =   0.0468750
        k(   34) = (   0.8750000  -0.3750000   0.3750000), wk =   0.0000000
        k(   35) = (  -0.1250000  -0.6250000  -0.1250000), wk =   0.0468750
        k(   36) = (   0.3750000  -1.1250000   0.3750000), wk =   0.0000000
        k(   37) = (   0.1250000  -0.6250000   0.1250000), wk =   0.0468750
        k(   38) = (   0.6250000  -1.1250000   0.6250000), wk =   0.0000000
        k(   39) = (   0.6250000   0.1250000   0.8750000), wk =   0.0937500
        k(   40) = (   1.1250000  -0.3750000   1.3750000), wk =   0.0000000
        k(   41) = (  -0.8750000   0.1250000   0.6250000), wk =   0.0937500
        k(   42) = (  -0.3750000  -0.3750000   1.1250000), wk =   0.0000000
        k(   43) = (   0.8750000   0.1250000  -0.6250000), wk =   0.0937500
        k(   44) = (   1.3750000  -0.3750000  -0.1250000), wk =   0.0000000
        k(   45) = (   0.3750000  -0.1250000   0.6250000), wk =   0.0937500
        k(   46) = (   0.8750000  -0.6250000   1.1250000), wk =   0.0000000
        k(   47) = (  -0.6250000  -0.1250000   0.3750000), wk =   0.0937500
        k(   48) = (  -0.1250000  -0.6250000   0.8750000), wk =   0.0000000
        k(   49) = (   0.6250000  -0.1250000  -0.3750000), wk =   0.0937500
        k(   50) = (   1.1250000  -0.6250000   0.1250000), wk =   0.0000000
        k(   51) = (  -0.1250000   0.8750000  -0.1250000), wk =   0.0468750
        k(   52) = (   0.3750000   0.3750000   0.3750000), wk =   0.0000000
        k(   53) = (   0.1250000   0.8750000   0.1250000), wk =   0.0468750
        k(   54) = (   0.6250000   0.3750000   0.6250000), wk =   0.0000000
        k(   55) = (   0.3750000  -0.3750000   0.3750000), wk =   0.0156250
        k(   56) = (   0.8750000  -0.8750000   0.8750000), wk =   0.0000000
        k(   57) = (   0.3750000   0.3750000   1.1250000), wk =   0.0937500
        k(   58) = (   0.8750000  -0.1250000   1.6250000), wk =   0.0000000
        k(   59) = (   1.1250000   0.3750000  -0.3750000), wk =   0.0468750
        k(   60) = (   1.6250000  -0.1250000   0.1250000), wk =   0.0000000

     Dense  grid:     2741 G-vectors     FFT dimensions: (  20,  20,  20)

     Estimated max dynamical RAM per process >       0.33MB

     Estimated total allocated dynamical RAM >       1.30MB

     Check: negative/imaginary core charge=   -0.000005    0.000000

     The potential is recalculated from file :
     ./_ph0/silicon.10.331.save/charge-density.dat

     Starting wfc are    8 atomic wfcs

     Band Structure Calculation
     Davidson diagonalization with overlap

     ethr =  1.25E-10,  avg # of iterations = 11.7

     total cpu time spent up to now is        1.9 secs

     End of band structure calculation

          k =-0.1250 0.1250 0.1250 (   338 PWs)   bands (ev):

    -5.6279   4.3987   5.7074   5.7074

          k = 0.3750-0.3750 0.6250 (   359 PWs)   bands (ev):

    -3.4670  -0.6688   3.7440   4.4549

          k =-0.3750 0.3750-0.1250 (   352 PWs)   bands (ev):

    -4.6034   1.4051   3.7253   5.2254

          k = 0.1250-0.1250 0.3750 (   349 PWs)   bands (ev):

    -5.1013   2.7802   4.6999   4.7642

          k = 0.3750-0.3750 0.6250 (   359 PWs)   bands (ev):

    -3.4670  -0.6688   3.7440   4.4549

          k = 0.8750-0.8750 1.1250 (   338 PWs)   bands (ev):

    -5.6279   4.3987   5.7074   5.7074

          k = 0.1250-0.1250 0.3750 (   349 PWs)   bands (ev):

    -5.1013   2.7802   4.6999   4.7642

          k = 0.6250-0.6250 0.8750 (   352 PWs)   bands (ev):

    -4.6034   1.4051   3.7253   5.2254

          k =-0.1250 0.6250 0.1250 (   349 PWs)   bands (ev):

    -4.0713   1.0677   3.3776   3.8261

          k = 0.3750 0.1250 0.6250 (   357 PWs)   bands (ev):

    -3.6572   0.1971   2.7375   4.1019

          k = 0.6250-0.1250 0.8750 (   359 PWs)   bands (ev):

    -2.4347  -0.8943   2.0284   3.1005

          k = 1.1250-0.6250 1.3750 (   352 PWs)   bands (ev):

    -4.6034   1.4051   3.7253   5.2254

          k = 0.3750 0.1250 0.6250 (   357 PWs)   bands (ev):

    -3.6572   0.1971   2.7375   4.1019

          k = 0.8750-0.3750 1.1250 (   349 PWs)   bands (ev):

    -4.0713   1.0677   3.3776   3.8261

          k =-0.1250-0.8750 0.1250 (   358 PWs)   bands (ev):

    -2.6015  -0.7973   2.6349   3.3594

          k = 0.3750-1.3750 0.6250 (   359 PWs)   bands (ev):

    -3.4670  -0.6688   3.7440   4.4549

          k =-0.3750 0.3750 0.3750 (   353 PWs)   bands (ev):

    -4.1721   0.1187   4.9189   4.9189

          k = 0.1250-0.1250 0.8750 (   358 PWs)   bands (ev):

    -2.6015  -0.7973   2.6349   3.3594

          k = 0.3750-0.3750 1.1250 (   361 PWs)   bands (ev):

    -2.9718  -0.5885   2.0856   4.1389

          k = 0.8750-0.8750 1.6250 (   349 PWs)   bands (ev):

    -4.0713   1.0677   3.3776   3.8261

          k = 0.1250-0.1250 0.1250 (   338 PWs)   bands (ev):

    -5.6279   4.3987   5.7074   5.7074

          k = 0.6250-0.6250 0.6250 (   353 PWs)   bands (ev):

    -4.1721   0.1187   4.9189   4.9189

          k =-0.3750-0.3750-0.1250 (   352 PWs)   bands (ev):

    -4.6034   1.4051   3.7253   5.2254

          k = 0.1250-0.8750 0.3750 (   359 PWs)   bands (ev):

    -2.4347  -0.8943   2.0284   3.1005

          k =-0.1250-0.3750 0.3750 (   352 PWs)   bands (ev):

    -4.6034   1.4051   3.7253   5.2254

          k = 0.3750-0.8750 0.8750 (   349 PWs)   bands (ev):

    -4.0713   1.0677   3.3776   3.8261

          k = 0.3750 0.3750 0.6250 (   359 PWs)   bands (ev):

    -3.4670  -0.6688   3.7440   4.4549

          k = 0.8750-0.1250 1.1250 (   358 PWs)   bands (ev):

    -2.6015  -0.7973   2.6349   3.3594

          k = 0.6250 0.3750-0.3750 (   359 PWs)   bands (ev):

    -3.4670  -0.6688   3.7440   4.4549

          k = 1.1250-0.1250 0.1250 (   358 PWs)   bands (ev):

    -2.6015  -0.7973   2.6349   3.3594

          k = 0.1250 0.1250 0.3750 (   349 PWs)   bands (ev):

    -5.1013   2.7802   4.6999   4.7642

          k = 0.6250-0.3750 0.8750 (   357 PWs)   bands (ev):

    -3.6572   0.1971   2.7375   4.1019

          k = 0.3750 0.1250-0.1250 (   349 PWs)   bands (ev):

    -5.1013   2.7802   4.6999   4.7642

          k = 0.8750-0.3750 0.3750 (   361 PWs)   bands (ev):

    -2.9718  -0.5885   2.0856   4.1389

          k =-0.1250-0.6250-0.1250 (   349 PWs)   bands (ev):

    -4.0713   1.0677   3.3776   3.8261

          k = 0.3750-1.1250 0.3750 (   361 PWs)   bands (ev):

    -2.9718  -0.5885   2.0856   4.1389

          k = 0.1250-0.6250 0.1250 (   349 PWs)   bands (ev):

    -4.0713   1.0677   3.3776   3.8261

          k = 0.6250-1.1250 0.6250 (   352 PWs)   bands (ev):

    -4.6034   1.4051   3.7253   5.2254

          k = 0.6250 0.1250 0.8750 (   359 PWs)   bands (ev):

    -2.4347  -0.8943   2.0284   3.1005

          k = 1.1250-0.3750 1.3750 (   357 PWs)   bands (ev):

    -3.6572   0.1971   2.7375   4.1019

          k =-0.8750 0.1250 0.6250 (   359 PWs)   bands (ev):

    -2.4347  -0.8943   2.0284   3.1005

          k =-0.3750-0.3750 1.1250 (   361 PWs)   bands (ev):

    -2.9718  -0.5885   2.0856   4.1389

          k = 0.8750 0.1250-0.6250 (   359 PWs)   bands (ev):

    -2.4347  -0.8943   2.0284   3.1005

          k = 1.3750-0.3750-0.1250 (   357 PWs)   bands (ev):

    -3.6572   0.1971   2.7375   4.1019

          k = 0.3750-0.1250 0.6250 (   357 PWs)   bands (ev):

    -3.6572   0.1971   2.7375   4.1019

          k = 0.8750-0.6250 1.1250 (   349 PWs)   bands (ev):

    -5.1013   2.7802   4.6999   4.7642

          k =-0.6250-0.1250 0.3750 (   357 PWs)   bands (ev):

    -3.6572   0.1971   2.7375   4.1019

          k =-0.1250-0.6250 0.8750 (   359 PWs)   bands (ev):

    -2.4347  -0.8943   2.0284   3.1005

          k = 0.6250-0.1250-0.3750 (   357 PWs)   bands (ev):

    -3.6572   0.1971   2.7375   4.1019

          k = 1.1250-0.6250 0.1250 (   359 PWs)   bands (ev):

    -2.4347  -0.8943   2.0284   3.1005

          k =-0.1250 0.8750-0.1250 (   358 PWs)   bands (ev):

    -2.6015  -0.7973   2.6349   3.3594

          k = 0.3750 0.3750 0.3750 (   353 PWs)   bands (ev):

    -4.1721   0.1187   4.9189   4.9189

          k = 0.1250 0.8750 0.1250 (   358 PWs)   bands (ev):

    -2.6015  -0.7973   2.6349   3.3594

          k = 0.6250 0.3750 0.6250 (   359 PWs)   bands (ev):

    -3.4670  -0.6688   3.7440   4.4549

          k = 0.3750-0.3750 0.3750 (   353 PWs)   bands (ev):

    -4.1721   0.1187   4.9189   4.9189

          k = 0.8750-0.8750 0.8750 (   338 PWs)   bands (ev):

    -5.6279   4.3987   5.7074   5.7074

          k = 0.3750 0.3750 1.1250 (   361 PWs)   bands (ev):

    -2.9718  -0.5885   2.0856   4.1389

          k = 0.8750-0.1250 1.6250 (   359 PWs)   bands (ev):

    -2.4347  -0.8943   2.0284   3.1005

          k = 1.1250 0.3750-0.3750 (   361 PWs)   bands (ev):

    -2.9718  -0.5885   2.0856   4.1389

          k = 1.6250-0.1250 0.1250 (   349 PWs)   bands (ev):

    -5.1013   2.7802   4.6999   4.7642

     highest occupied level (ev):     5.7074

     Writing output data file silicon.10.331.save

                                                                                

     bravais-lattice index     =            2
     lattice parameter (alat)  =      10.3310  a.u.
     unit-cell volume          =     275.6558 (a.u.)^3
     number of atoms/cell      =            2
     number of atomic types    =            1
     kinetic-energy cut-off    =      18.0000  Ry
     charge density cut-off    =      72.0000  Ry
     convergence threshold     =      1.0E-12
     beta                      =       0.7000
     number of iterations used =            4
     Exchange-correlation      = SLA  PW   PBE  PBE ( 1  4  3  4 0 0)


     celldm(1)=   10.33100  celldm(2)=    0.00000  celldm(3)=    0.00000
     celldm(4)=    0.00000  celldm(5)=    0.00000  celldm(6)=    0.00000

     crystal axes: (cart. coord. in units of alat)
               a(1) = ( -0.5000  0.0000  0.5000 )  
               a(2) = (  0.0000  0.5000  0.5000 )  
               a(3) = ( -0.5000  0.5000  0.0000 )  

     reciprocal axes: (cart. coord. in units 2 pi/alat)
               b(1) = ( -1.0000 -1.0000  1.0000 )  
               b(2) = (  1.0000  1.0000  1.0000 )  
               b(3) = ( -1.0000  1.0000 -1.0000 )  


     Atoms inside the unit cell: 

     Cartesian axes

     site n.  atom      mass           positions (alat units)
        1     Si  28.0860   tau(    1) = (    0.00000    0.00000    0.00000  )
        2     Si  28.0860   tau(    2) = (    0.25000    0.25000    0.25000  )

     Computing dynamical matrix for 
                    q = (   0.5000000  -0.5000000   0.5000000 )

     13 Sym.Ops. (with q -> -q+G )


     G cutoff =  194.6514  (    685 G-vectors)     FFT grid: ( 20, 20, 20)
     number of k points=    60

     PseudoPot. # 1 for Si read from file:
     /home/max/quantum_espresso/qe-6.1/pseudo/si_pbe_v1.uspp.F.UPF.txt
     MD5 check sum: a056efeee980c13900f22a371efd63c1
     Pseudo is Ultrasoft + core correction, Zval =  4.0
     Generated by new atomic code, or converted to UPF format
     Using radial grid of  899 points,  6 beta functions with: 
                l(1) =   0
                l(2) =   0
                l(3) =   1
                l(4) =   1
                l(5) =   2
                l(6) =   2
     Q(r) pseudized with  8 coefficients,  rinner =    0.900   0.900   0.900
                                                       0.900   0.900


     Atomic displacements:
     There are   4 irreducible representations

     Representation     1      1 modes -  To be done

     Representation     2      1 modes -  To be done

     Representation     3      2 modes -  To be done

     Representation     4      2 modes -  To be done



     Alpha used in Ewald sum =   0.7000
     PHONON       :    19.62s CPU        21.68s WALL



     Representation #  1 mode #   1

     Self-consistent Calculation

      iter #   1 total cpu time :    21.8 secs   av.it.:   4.9
      thresh= 1.000E-02 alpha_mix =  0.700 |ddv_scf|^2 =  2.483E-05

      iter #   2 total cpu time :    22.0 secs   av.it.:   8.3
      thresh= 4.983E-04 alpha_mix =  0.700 |ddv_scf|^2 =  2.211E-05

      iter #   3 total cpu time :    22.1 secs   av.it.:   7.5
      thresh= 4.702E-04 alpha_mix =  0.700 |ddv_scf|^2 =  4.203E-08

      iter #   4 total cpu time :    22.3 secs   av.it.:   7.5
      thresh= 2.050E-05 alpha_mix =  0.700 |ddv_scf|^2 =  1.420E-10

      iter #   5 total cpu time :    22.4 secs   av.it.:   7.9
      thresh= 1.192E-06 alpha_mix =  0.700 |ddv_scf|^2 =  3.594E-12

      iter #   6 total cpu time :    22.6 secs   av.it.:   7.9
      thresh= 1.896E-07 alpha_mix =  0.700 |ddv_scf|^2 =  5.543E-14

     End of self-consistent calculation

     Convergence has been achieved 


     Representation #  2 mode #   2

     Self-consistent Calculation

      iter #   1 total cpu time :    22.8 secs   av.it.:   5.7
      thresh= 1.000E-02 alpha_mix =  0.700 |ddv_scf|^2 =  3.450E-04

      iter #   2 total cpu time :    23.1 secs   av.it.:   8.3
      thresh= 1.857E-03 alpha_mix =  0.700 |ddv_scf|^2 =  1.063E-03

      iter #   3 total cpu time :    23.4 secs   av.it.:   7.1
      thresh= 3.261E-03 alpha_mix =  0.700 |ddv_scf|^2 =  1.138E-07

      iter #   4 total cpu time :    23.6 secs   av.it.:   8.2
      thresh= 3.374E-05 alpha_mix =  0.700 |ddv_scf|^2 =  7.320E-09

      iter #   5 total cpu time :    23.8 secs   av.it.:   8.5
      thresh= 8.555E-06 alpha_mix =  0.700 |ddv_scf|^2 =  1.301E-10

      iter #   6 total cpu time :    23.9 secs   av.it.:   8.3
      thresh= 1.141E-06 alpha_mix =  0.700 |ddv_scf|^2 =  2.075E-12

      iter #   7 total cpu time :    24.1 secs   av.it.:   7.8
      thresh= 1.440E-07 alpha_mix =  0.700 |ddv_scf|^2 =  3.168E-15

     End of self-consistent calculation

     Convergence has been achieved 


     Representation #  3 modes #   3  4

     Self-consistent Calculation

      iter #   1 total cpu time :    24.4 secs   av.it.:   4.7
      thresh= 1.000E-02 alpha_mix =  0.700 |ddv_scf|^2 =  3.036E-07

      iter #   2 total cpu time :    24.7 secs   av.it.:   9.1
      thresh= 5.510E-05 alpha_mix =  0.700 |ddv_scf|^2 =  2.505E-08

      iter #   3 total cpu time :    25.4 secs   av.it.:   8.4
      thresh= 1.583E-05 alpha_mix =  0.700 |ddv_scf|^2 =  4.936E-10

      iter #   4 total cpu time :    25.7 secs   av.it.:   8.9
      thresh= 2.222E-06 alpha_mix =  0.700 |ddv_scf|^2 =  6.202E-12

      iter #   5 total cpu time :    26.1 secs   av.it.:   8.7
      thresh= 2.490E-07 alpha_mix =  0.700 |ddv_scf|^2 =  3.221E-14

     End of self-consistent calculation

     Convergence has been achieved 


     Representation #  4 modes #   5  6

     Self-consistent Calculation

      iter #   1 total cpu time :    26.3 secs   av.it.:   5.0
      thresh= 1.000E-02 alpha_mix =  0.700 |ddv_scf|^2 =  9.795E-07

      iter #   2 total cpu time :    26.7 secs   av.it.:   9.5
      thresh= 9.897E-05 alpha_mix =  0.700 |ddv_scf|^2 =  7.664E-08

      iter #   3 total cpu time :    27.3 secs   av.it.:   9.3
      thresh= 2.768E-05 alpha_mix =  0.700 |ddv_scf|^2 =  4.915E-09

      iter #   4 total cpu time :    27.7 secs   av.it.:   8.5
      thresh= 7.011E-06 alpha_mix =  0.700 |ddv_scf|^2 =  6.604E-12

      iter #   5 total cpu time :    28.0 secs   av.it.:   8.8
      thresh= 2.570E-07 alpha_mix =  0.700 |ddv_scf|^2 =  2.297E-14

     End of self-consistent calculation

     Convergence has been achieved 

     Number of q in the star =    4
     List of q in the star:
          1   0.500000000  -0.500000000   0.500000000
          2   0.500000000   0.500000000   0.500000000
          3  -0.500000000   0.500000000   0.500000000
          4   0.500000000   0.500000000  -0.500000000

     Diagonalizing the dynamical matrix

     q = (    0.500000000  -0.500000000   0.500000000 ) 

 **************************************************************************
     freq (    1) =       4.552163 [THz] =     151.843825 [cm-1]
     freq (    2) =       4.552163 [THz] =     151.843825 [cm-1]
     freq (    3) =      11.551159 [THz] =     385.305197 [cm-1]
     freq (    4) =      12.146175 [THz] =     405.152795 [cm-1]
     freq (    5) =      14.424431 [THz] =     481.147239 [cm-1]
     freq (    6) =      14.424431 [THz] =     481.147239 [cm-1]
 **************************************************************************

     Calculation of q =    0.0000000   0.5000000   0.0000000

   Info: using nr1, nr2, nr3 values from input

   Info: using nr1, nr2, nr3 values from input

     Parallelization info
     --------------------
     sticks:   dense  smooth     PW     G-vecs:    dense   smooth      PW
     Min          63      63     27                  684      684     175
     Max          64      64     28                  688      688     176
     Sum         253     253    109                 2741     2741     701



     bravais-lattice index     =            2
     lattice parameter (alat)  =      10.3310  a.u.
     unit-cell volume          =     275.6558 (a.u.)^3
     number of atoms/cell      =            2
     number of atomic types    =            1
     number of electrons       =         8.00
     number of Kohn-Sham states=            4
     kinetic-energy cutoff     =      18.0000  Ry
     charge density cutoff     =      72.0000  Ry
     Exchange-correlation      = SLA  PW   PBE  PBE ( 1  4  3  4 0 0)

     celldm(1)=  10.331000  celldm(2)=   0.000000  celldm(3)=   0.000000
     celldm(4)=   0.000000  celldm(5)=   0.000000  celldm(6)=   0.000000

     crystal axes: (cart. coord. in units of alat)
               a(1) = (  -0.500000   0.000000   0.500000 )  
               a(2) = (   0.000000   0.500000   0.500000 )  
               a(3) = (  -0.500000   0.500000   0.000000 )  

     reciprocal axes: (cart. coord. in units 2 pi/alat)
               b(1) = ( -1.000000 -1.000000  1.000000 )  
               b(2) = (  1.000000  1.000000  1.000000 )  
               b(3) = ( -1.000000  1.000000 -1.000000 )  


     PseudoPot. # 1 for Si read from file:
     /home/max/quantum_espresso/qe-6.1/pseudo/si_pbe_v1.uspp.F.UPF.txt
     MD5 check sum: a056efeee980c13900f22a371efd63c1
     Pseudo is Ultrasoft + core correction, Zval =  4.0
     Generated by new atomic code, or converted to UPF format
     Using radial grid of  899 points,  6 beta functions with: 
                l(1) =   0
                l(2) =   0
                l(3) =   1
                l(4) =   1
                l(5) =   2
                l(6) =   2
     Q(r) pseudized with  8 coefficients,  rinner =    0.900   0.900   0.900
                                                       0.900   0.900

     atomic species   valence    mass     pseudopotential
        Si             4.00    28.08600     Si( 1.00)

     48 Sym. Ops., with inversion, found



   Cartesian axes

     site n.     atom                  positions (alat units)
         1           Si  tau(   1) = (   0.0000000   0.0000000   0.0000000  )
         2           Si  tau(   2) = (   0.2500000   0.2500000   0.2500000  )

     number of k points=    80
                       cart. coord. in units 2pi/alat
        k(    1) = (  -0.1250000   0.1250000   0.1250000), wk =   0.0312500
        k(    2) = (  -0.1250000   0.6250000   0.1250000), wk =   0.0000000
        k(    3) = (  -0.3750000   0.3750000  -0.1250000), wk =   0.0625000
        k(    4) = (  -0.3750000   0.8750000  -0.1250000), wk =   0.0000000
        k(    5) = (   0.3750000  -0.3750000   0.6250000), wk =   0.0625000
        k(    6) = (   0.3750000   0.1250000   0.6250000), wk =   0.0000000
        k(    7) = (   0.1250000  -0.1250000   0.3750000), wk =   0.0625000
        k(    8) = (   0.1250000   0.3750000   0.3750000), wk =   0.0000000
        k(    9) = (  -0.1250000   0.6250000   0.1250000), wk =   0.0312500
        k(   10) = (  -0.1250000   1.1250000   0.1250000), wk =   0.0000000
        k(   11) = (   0.6250000  -0.1250000   0.8750000), wk =   0.0625000
        k(   12) = (   0.6250000   0.3750000   0.8750000), wk =   0.0000000
        k(   13) = (   0.3750000   0.1250000   0.6250000), wk =   0.0625000
        k(   14) = (   0.3750000   0.6250000   0.6250000), wk =   0.0000000
        k(   15) = (  -0.1250000  -0.8750000   0.1250000), wk =   0.0312500
        k(   16) = (  -0.1250000  -0.3750000   0.1250000), wk =   0.0000000
        k(   17) = (  -0.3750000   0.3750000   0.3750000), wk =   0.0312500
        k(   18) = (  -0.3750000   0.8750000   0.3750000), wk =   0.0000000
        k(   19) = (   0.3750000  -0.3750000   1.1250000), wk =   0.0625000
        k(   20) = (   0.3750000   0.1250000   1.1250000), wk =   0.0000000
        k(   21) = (  -0.1250000  -0.1250000   0.1250000), wk =   0.0312500
        k(   22) = (  -0.1250000   0.3750000   0.1250000), wk =   0.0000000
        k(   23) = (   0.1250000  -0.3750000   0.3750000), wk =   0.0625000
        k(   24) = (   0.1250000   0.1250000   0.3750000), wk =   0.0000000
        k(   25) = (   0.3750000  -0.1250000   0.3750000), wk =   0.0312500
        k(   26) = (   0.3750000   0.3750000   0.3750000), wk =   0.0000000
        k(   27) = (   0.3750000   0.1250000   0.3750000), wk =   0.0312500
        k(   28) = (   0.3750000   0.6250000   0.3750000), wk =   0.0000000
        k(   29) = (  -0.6250000   0.3750000  -0.3750000), wk =   0.0625000
        k(   30) = (  -0.6250000   0.8750000  -0.3750000), wk =   0.0000000
        k(   31) = (  -0.3750000   0.6250000  -0.3750000), wk =   0.0312500
        k(   32) = (  -0.3750000   1.1250000  -0.3750000), wk =   0.0000000
        k(   33) = (  -0.3750000  -0.6250000  -0.3750000), wk =   0.0312500
        k(   34) = (  -0.3750000  -0.1250000  -0.3750000), wk =   0.0000000
        k(   35) = (  -0.3750000   0.1250000  -0.1250000), wk =   0.0625000
        k(   36) = (  -0.3750000   0.6250000  -0.1250000), wk =   0.0000000
        k(   37) = (  -0.1250000   0.3750000  -0.1250000), wk =   0.0312500
        k(   38) = (  -0.1250000   0.8750000  -0.1250000), wk =   0.0000000
        k(   39) = (  -0.1250000  -0.3750000  -0.1250000), wk =   0.0312500
        k(   40) = (  -0.1250000   0.1250000  -0.1250000), wk =   0.0000000
        k(   41) = (  -0.1250000  -0.6250000   0.1250000), wk =   0.0312500
        k(   42) = (  -0.1250000  -0.1250000   0.1250000), wk =   0.0000000
        k(   43) = (   0.6250000  -0.1250000  -0.1250000), wk =   0.0625000
        k(   44) = (   0.6250000   0.3750000  -0.1250000), wk =   0.0000000
        k(   45) = (   0.6250000   0.1250000   0.1250000), wk =   0.0625000
        k(   46) = (   0.6250000   0.6250000   0.1250000), wk =   0.0000000
        k(   47) = (  -0.8750000   0.1250000  -0.6250000), wk =   0.0625000
        k(   48) = (  -0.8750000   0.6250000  -0.6250000), wk =   0.0000000
        k(   49) = (  -0.1250000   0.6250000  -0.8750000), wk =   0.0625000
        k(   50) = (  -0.1250000   1.1250000  -0.8750000), wk =   0.0000000
        k(   51) = (  -0.1250000   0.8750000  -0.6250000), wk =   0.0625000
        k(   52) = (  -0.1250000   1.3750000  -0.6250000), wk =   0.0000000
        k(   53) = (  -0.1250000  -0.8750000  -0.6250000), wk =   0.0625000
        k(   54) = (  -0.1250000  -0.3750000  -0.6250000), wk =   0.0000000
        k(   55) = (   0.8750000  -0.6250000   0.1250000), wk =   0.0625000
        k(   56) = (   0.8750000  -0.1250000   0.1250000), wk =   0.0000000
        k(   57) = (  -0.6250000  -0.1250000  -0.3750000), wk =   0.0625000
        k(   58) = (  -0.6250000   0.3750000  -0.3750000), wk =   0.0000000
        k(   59) = (   0.1250000   0.3750000  -0.6250000), wk =   0.0625000
        k(   60) = (   0.1250000   0.8750000  -0.6250000), wk =   0.0000000
        k(   61) = (   0.1250000   0.6250000  -0.3750000), wk =   0.0625000
        k(   62) = (   0.1250000   1.1250000  -0.3750000), wk =   0.0000000
        k(   63) = (   0.1250000  -0.6250000  -0.3750000), wk =   0.0625000
        k(   64) = (   0.1250000  -0.1250000  -0.3750000), wk =   0.0000000
        k(   65) = (   0.6250000  -0.3750000  -0.1250000), wk =   0.0625000
        k(   66) = (   0.6250000   0.1250000  -0.1250000), wk =   0.0000000
        k(   67) = (  -0.1250000   0.8750000   0.1250000), wk =   0.0312500
        k(   68) = (  -0.1250000   1.3750000   0.1250000), wk =   0.0000000
        k(   69) = (  -0.8750000  -0.1250000  -0.1250000), wk =   0.0625000
        k(   70) = (  -0.8750000   0.3750000  -0.1250000), wk =   0.0000000
        k(   71) = (  -0.8750000   0.1250000   0.1250000), wk =   0.0625000
        k(   72) = (  -0.8750000   0.6250000   0.1250000), wk =   0.0000000
        k(   73) = (  -0.3750000  -0.3750000   0.3750000), wk =   0.0312500
        k(   74) = (  -0.3750000   0.1250000   0.3750000), wk =   0.0000000
        k(   75) = (  -1.1250000   0.3750000  -0.3750000), wk =   0.0625000
        k(   76) = (  -1.1250000   0.8750000  -0.3750000), wk =   0.0000000
        k(   77) = (  -0.3750000   1.1250000  -0.3750000), wk =   0.0312500
        k(   78) = (  -0.3750000   1.6250000  -0.3750000), wk =   0.0000000
        k(   79) = (  -0.3750000  -1.1250000  -0.3750000), wk =   0.0312500
        k(   80) = (  -0.3750000  -0.6250000  -0.3750000), wk =   0.0000000

     Dense  grid:     2741 G-vectors     FFT dimensions: (  20,  20,  20)

     Estimated max dynamical RAM per process >       0.33MB

     Estimated total allocated dynamical RAM >       1.30MB

     Check: negative/imaginary core charge=   -0.000005    0.000000

     The potential is recalculated from file :
     ./_ph0/silicon.10.331.save/charge-density.dat

     Starting wfc are    8 atomic wfcs

     Band Structure Calculation
     Davidson diagonalization with overlap

     ethr =  1.25E-10,  avg # of iterations = 11.7

     total cpu time spent up to now is        2.6 secs

     End of band structure calculation

          k =-0.1250 0.1250 0.1250 (   338 PWs)   bands (ev):

    -5.6279   4.3987   5.7074   5.7074

          k =-0.1250 0.6250 0.1250 (   349 PWs)   bands (ev):

    -4.0713   1.0677   3.3776   3.8261

          k =-0.3750 0.3750-0.1250 (   352 PWs)   bands (ev):

    -4.6034   1.4051   3.7253   5.2254

          k =-0.3750 0.8750-0.1250 (   359 PWs)   bands (ev):

    -2.4347  -0.8943   2.0284   3.1005

          k = 0.3750-0.3750 0.6250 (   359 PWs)   bands (ev):

    -3.4670  -0.6688   3.7440   4.4549

          k = 0.3750 0.1250 0.6250 (   357 PWs)   bands (ev):

    -3.6572   0.1971   2.7375   4.1019

          k = 0.1250-0.1250 0.3750 (   349 PWs)   bands (ev):

    -5.1013   2.7802   4.6999   4.7642

          k = 0.1250 0.3750 0.3750 (   352 PWs)   bands (ev):

    -4.6034   1.4051   3.7253   5.2254

          k =-0.1250 0.6250 0.1250 (   349 PWs)   bands (ev):

    -4.0713   1.0677   3.3776   3.8261

          k =-0.1250 1.1250 0.1250 (   358 PWs)   bands (ev):

    -2.6015  -0.7973   2.6349   3.3594

          k = 0.6250-0.1250 0.8750 (   359 PWs)   bands (ev):

    -2.4347  -0.8943   2.0284   3.1005

          k = 0.6250 0.3750 0.8750 (   357 PWs)   bands (ev):

    -3.6572   0.1971   2.7375   4.1019

          k = 0.3750 0.1250 0.6250 (   357 PWs)   bands (ev):

    -3.6572   0.1971   2.7375   4.1019

          k = 0.3750 0.6250 0.6250 (   359 PWs)   bands (ev):

    -3.4670  -0.6688   3.7440   4.4549

          k =-0.1250-0.8750 0.1250 (   358 PWs)   bands (ev):

    -2.6015  -0.7973   2.6349   3.3594

          k =-0.1250-0.3750 0.1250 (   349 PWs)   bands (ev):

    -5.1013   2.7802   4.6999   4.7642

          k =-0.3750 0.3750 0.3750 (   353 PWs)   bands (ev):

    -4.1721   0.1187   4.9189   4.9189

          k =-0.3750 0.8750 0.3750 (   361 PWs)   bands (ev):

    -2.9718  -0.5885   2.0856   4.1389

          k = 0.3750-0.3750 1.1250 (   361 PWs)   bands (ev):

    -2.9718  -0.5885   2.0856   4.1389

          k = 0.3750 0.1250 1.1250 (   359 PWs)   bands (ev):

    -2.4347  -0.8943   2.0284   3.1005

          k =-0.1250-0.1250 0.1250 (   338 PWs)   bands (ev):

    -5.6279   4.3987   5.7074   5.7074

          k =-0.1250 0.3750 0.1250 (   349 PWs)   bands (ev):

    -5.1013   2.7802   4.6999   4.7642

          k = 0.1250-0.3750 0.3750 (   352 PWs)   bands (ev):

    -4.6034   1.4051   3.7253   5.2254

          k = 0.1250 0.1250 0.3750 (   349 PWs)   bands (ev):

    -5.1013   2.7802   4.6999   4.7642

          k = 0.3750-0.1250 0.3750 (   352 PWs)   bands (ev):

    -4.6034   1.4051   3.7253   5.2254

          k = 0.3750 0.3750 0.3750 (   353 PWs)   bands (ev):

    -4.1721   0.1187   4.9189   4.9189

          k = 0.3750 0.1250 0.3750 (   352 PWs)   bands (ev):

    -4.6034   1.4051   3.7253   5.2254

          k = 0.3750 0.6250 0.3750 (   359 PWs)   bands (ev):

    -3.4670  -0.6688   3.7440   4.4549

          k =-0.6250 0.3750-0.3750 (   359 PWs)   bands (ev):

    -3.4670  -0.6688   3.7440   4.4549

          k =-0.6250 0.8750-0.3750 (   357 PWs)   bands (ev):

    -3.6572   0.1971   2.7375   4.1019

          k =-0.3750 0.6250-0.3750 (   359 PWs)   bands (ev):

    -3.4670  -0.6688   3.7440   4.4549

          k =-0.3750 1.1250-0.3750 (   361 PWs)   bands (ev):

    -2.9718  -0.5885   2.0856   4.1389

          k =-0.3750-0.6250-0.3750 (   359 PWs)   bands (ev):

    -3.4670  -0.6688   3.7440   4.4549

          k =-0.3750-0.1250-0.3750 (   352 PWs)   bands (ev):

    -4.6034   1.4051   3.7253   5.2254

          k =-0.3750 0.1250-0.1250 (   349 PWs)   bands (ev):

    -5.1013   2.7802   4.6999   4.7642

          k =-0.3750 0.6250-0.1250 (   357 PWs)   bands (ev):

    -3.6572   0.1971   2.7375   4.1019

          k =-0.1250 0.3750-0.1250 (   349 PWs)   bands (ev):

    -5.1013   2.7802   4.6999   4.7642

          k =-0.1250 0.8750-0.1250 (   358 PWs)   bands (ev):

    -2.6015  -0.7973   2.6349   3.3594

          k =-0.1250-0.3750-0.1250 (   349 PWs)   bands (ev):

    -5.1013   2.7802   4.6999   4.7642

          k =-0.1250 0.1250-0.1250 (   338 PWs)   bands (ev):

    -5.6279   4.3987   5.7074   5.7074

          k =-0.1250-0.6250 0.1250 (   349 PWs)   bands (ev):

    -4.0713   1.0677   3.3776   3.8261

          k =-0.1250-0.1250 0.1250 (   338 PWs)   bands (ev):

    -5.6279   4.3987   5.7074   5.7074

          k = 0.6250-0.1250-0.1250 (   349 PWs)   bands (ev):

    -4.0713   1.0677   3.3776   3.8261

          k = 0.6250 0.3750-0.1250 (   357 PWs)   bands (ev):

    -3.6572   0.1971   2.7375   4.1019

          k = 0.6250 0.1250 0.1250 (   349 PWs)   bands (ev):

    -4.0713   1.0677   3.3776   3.8261

          k = 0.6250 0.6250 0.1250 (   361 PWs)   bands (ev):

    -2.9718  -0.5885   2.0856   4.1389

          k =-0.8750 0.1250-0.6250 (   359 PWs)   bands (ev):

    -2.4347  -0.8943   2.0284   3.1005

          k =-0.8750 0.6250-0.6250 (   352 PWs)   bands (ev):

    -4.6034   1.4051   3.7253   5.2254

          k =-0.1250 0.6250-0.8750 (   359 PWs)   bands (ev):

    -2.4347  -0.8943   2.0284   3.1005

          k =-0.1250 1.1250-0.8750 (   358 PWs)   bands (ev):

    -2.6015  -0.7973   2.6349   3.3594

          k =-0.1250 0.8750-0.6250 (   359 PWs)   bands (ev):

    -2.4347  -0.8943   2.0284   3.1005

          k =-0.1250 1.3750-0.6250 (   361 PWs)   bands (ev):

    -2.9718  -0.5885   2.0856   4.1389

          k =-0.1250-0.8750-0.6250 (   359 PWs)   bands (ev):

    -2.4347  -0.8943   2.0284   3.1005

          k =-0.1250-0.3750-0.6250 (   357 PWs)   bands (ev):

    -3.6572   0.1971   2.7375   4.1019

          k = 0.8750-0.6250 0.1250 (   359 PWs)   bands (ev):

    -2.4347  -0.8943   2.0284   3.1005

          k = 0.8750-0.1250 0.1250 (   358 PWs)   bands (ev):

    -2.6015  -0.7973   2.6349   3.3594

          k =-0.6250-0.1250-0.3750 (   357 PWs)   bands (ev):

    -3.6572   0.1971   2.7375   4.1019

          k =-0.6250 0.3750-0.3750 (   359 PWs)   bands (ev):

    -3.4670  -0.6688   3.7440   4.4549

          k = 0.1250 0.3750-0.6250 (   357 PWs)   bands (ev):

    -3.6572   0.1971   2.7375   4.1019

          k = 0.1250 0.8750-0.6250 (   359 PWs)   bands (ev):

    -2.4347  -0.8943   2.0284   3.1005

          k = 0.1250 0.6250-0.3750 (   357 PWs)   bands (ev):

    -3.6572   0.1971   2.7375   4.1019

          k = 0.1250 1.1250-0.3750 (   359 PWs)   bands (ev):

    -2.4347  -0.8943   2.0284   3.1005

          k = 0.1250-0.6250-0.3750 (   357 PWs)   bands (ev):

    -3.6572   0.1971   2.7375   4.1019

          k = 0.1250-0.1250-0.3750 (   349 PWs)   bands (ev):

    -5.1013   2.7802   4.6999   4.7642

          k = 0.6250-0.3750-0.1250 (   357 PWs)   bands (ev):

    -3.6572   0.1971   2.7375   4.1019

          k = 0.6250 0.1250-0.1250 (   349 PWs)   bands (ev):

    -4.0713   1.0677   3.3776   3.8261

          k =-0.1250 0.8750 0.1250 (   358 PWs)   bands (ev):

    -2.6015  -0.7973   2.6349   3.3594

          k =-0.1250 1.3750 0.1250 (   349 PWs)   bands (ev):

    -4.0713   1.0677   3.3776   3.8261

          k =-0.8750-0.1250-0.1250 (   358 PWs)   bands (ev):

    -2.6015  -0.7973   2.6349   3.3594

          k =-0.8750 0.3750-0.1250 (   359 PWs)   bands (ev):

    -2.4347  -0.8943   2.0284   3.1005

          k =-0.8750 0.1250 0.1250 (   358 PWs)   bands (ev):

    -2.6015  -0.7973   2.6349   3.3594

          k =-0.8750 0.6250 0.1250 (   359 PWs)   bands (ev):

    -2.4347  -0.8943   2.0284   3.1005

          k =-0.3750-0.3750 0.3750 (   353 PWs)   bands (ev):

    -4.1721   0.1187   4.9189   4.9189

          k =-0.3750 0.1250 0.3750 (   352 PWs)   bands (ev):

    -4.6034   1.4051   3.7253   5.2254

          k =-1.1250 0.3750-0.3750 (   361 PWs)   bands (ev):

    -2.9718  -0.5885   2.0856   4.1389

          k =-1.1250 0.8750-0.3750 (   349 PWs)   bands (ev):

    -4.0713   1.0677   3.3776   3.8261

          k =-0.3750 1.1250-0.3750 (   361 PWs)   bands (ev):

    -2.9718  -0.5885   2.0856   4.1389

          k =-0.3750 1.6250-0.3750 (   353 PWs)   bands (ev):

    -4.1721   0.1187   4.9189   4.9189

          k =-0.3750-1.1250-0.3750 (   361 PWs)   bands (ev):

    -2.9718  -0.5885   2.0856   4.1389

          k =-0.3750-0.6250-0.3750 (   359 PWs)   bands (ev):

    -3.4670  -0.6688   3.7440   4.4549

     highest occupied level (ev):     5.7074

     Writing output data file silicon.10.331.save

                                                                                

     bravais-lattice index     =            2
     lattice parameter (alat)  =      10.3310  a.u.
     unit-cell volume          =     275.6558 (a.u.)^3
     number of atoms/cell      =            2
     number of atomic types    =            1
     kinetic-energy cut-off    =      18.0000  Ry
     charge density cut-off    =      72.0000  Ry
     convergence threshold     =      1.0E-12
     beta                      =       0.7000
     number of iterations used =            4
     Exchange-correlation      = SLA  PW   PBE  PBE ( 1  4  3  4 0 0)


     celldm(1)=   10.33100  celldm(2)=    0.00000  celldm(3)=    0.00000
     celldm(4)=    0.00000  celldm(5)=    0.00000  celldm(6)=    0.00000

     crystal axes: (cart. coord. in units of alat)
               a(1) = ( -0.5000  0.0000  0.5000 )  
               a(2) = (  0.0000  0.5000  0.5000 )  
               a(3) = ( -0.5000  0.5000  0.0000 )  

     reciprocal axes: (cart. coord. in units 2 pi/alat)
               b(1) = ( -1.0000 -1.0000  1.0000 )  
               b(2) = (  1.0000  1.0000  1.0000 )  
               b(3) = ( -1.0000  1.0000 -1.0000 )  


     Atoms inside the unit cell: 

     Cartesian axes

     site n.  atom      mass           positions (alat units)
        1     Si  28.0860   tau(    1) = (    0.00000    0.00000    0.00000  )
        2     Si  28.0860   tau(    2) = (    0.25000    0.25000    0.25000  )

     Computing dynamical matrix for 
                    q = (   0.0000000   0.5000000   0.0000000 )

      8 Sym.Ops. (no q -> -q+G )


     G cutoff =  194.6514  (    685 G-vectors)     FFT grid: ( 20, 20, 20)
     number of k points=    80

     PseudoPot. # 1 for Si read from file:
     /home/max/quantum_espresso/qe-6.1/pseudo/si_pbe_v1.uspp.F.UPF.txt
     MD5 check sum: a056efeee980c13900f22a371efd63c1
     Pseudo is Ultrasoft + core correction, Zval =  4.0
     Generated by new atomic code, or converted to UPF format
     Using radial grid of  899 points,  6 beta functions with: 
                l(1) =   0
                l(2) =   0
                l(3) =   1
                l(4) =   1
                l(5) =   2
                l(6) =   2
     Q(r) pseudized with  8 coefficients,  rinner =    0.900   0.900   0.900
                                                       0.900   0.900

     Mode symmetry, C_4v (4mm)  point group:


     Atomic displacements:
     There are   4 irreducible representations

     Representation     1      1 modes -A_1  G_1 D_1  To be done

     Representation     2      1 modes -B_2  G_4 D_2'  To be done

     Representation     3      2 modes -E    G_5 D_5  To be done

     Representation     4      2 modes -E    G_5 D_5  To be done



     Alpha used in Ewald sum =   0.7000
     PHONON       :    26.45s CPU        29.34s WALL



     Representation #  1 mode #   1

     Self-consistent Calculation

      iter #   1 total cpu time :    29.5 secs   av.it.:   5.8
      thresh= 1.000E-02 alpha_mix =  0.700 |ddv_scf|^2 =  2.973E-03

      iter #   2 total cpu time :    29.7 secs   av.it.:   7.6
      thresh= 5.453E-03 alpha_mix =  0.700 |ddv_scf|^2 =  3.910E-02

      iter #   3 total cpu time :    29.9 secs   av.it.:   6.7
      thresh= 1.000E-02 alpha_mix =  0.700 |ddv_scf|^2 =  1.380E-07

      iter #   4 total cpu time :    30.1 secs   av.it.:   8.2
      thresh= 3.715E-05 alpha_mix =  0.700 |ddv_scf|^2 =  1.248E-08

      iter #   5 total cpu time :    30.3 secs   av.it.:   7.8
      thresh= 1.117E-05 alpha_mix =  0.700 |ddv_scf|^2 =  7.427E-10

      iter #   6 total cpu time :    30.5 secs   av.it.:   7.8
      thresh= 2.725E-06 alpha_mix =  0.700 |ddv_scf|^2 =  2.735E-12

      iter #   7 total cpu time :    30.7 secs   av.it.:   7.9
      thresh= 1.654E-07 alpha_mix =  0.700 |ddv_scf|^2 =  5.407E-13

     End of self-consistent calculation

     Convergence has been achieved 


     Representation #  2 mode #   2

     Self-consistent Calculation

      iter #   1 total cpu time :    31.1 secs   av.it.:   4.9
      thresh= 1.000E-02 alpha_mix =  0.700 |ddv_scf|^2 =  5.513E-06

      iter #   2 total cpu time :    31.5 secs   av.it.:   8.7
      thresh= 2.348E-04 alpha_mix =  0.700 |ddv_scf|^2 =  1.334E-06

      iter #   3 total cpu time :    31.7 secs   av.it.:   8.5
      thresh= 1.155E-04 alpha_mix =  0.700 |ddv_scf|^2 =  4.272E-08

      iter #   4 total cpu time :    31.9 secs   av.it.:   8.2
      thresh= 2.067E-05 alpha_mix =  0.700 |ddv_scf|^2 =  6.944E-10

      iter #   5 total cpu time :    32.2 secs   av.it.:   8.5
      thresh= 2.635E-06 alpha_mix =  0.700 |ddv_scf|^2 =  6.885E-12

      iter #   6 total cpu time :    32.4 secs   av.it.:   7.9
      thresh= 2.624E-07 alpha_mix =  0.700 |ddv_scf|^2 =  6.989E-14

     End of self-consistent calculation

     Convergence has been achieved 


     Representation #  3 modes #   3  4

     Self-consistent Calculation

      iter #   1 total cpu time :    32.7 secs   av.it.:   5.0
      thresh= 1.000E-02 alpha_mix =  0.700 |ddv_scf|^2 =  1.025E-06

      iter #   2 total cpu time :    33.5 secs   av.it.:   9.7
      thresh= 1.012E-04 alpha_mix =  0.700 |ddv_scf|^2 =  1.268E-07

      iter #   3 total cpu time :    34.0 secs   av.it.:   9.5
      thresh= 3.561E-05 alpha_mix =  0.700 |ddv_scf|^2 =  6.699E-09

      iter #   4 total cpu time :    34.4 secs   av.it.:   8.8
      thresh= 8.185E-06 alpha_mix =  0.700 |ddv_scf|^2 =  9.376E-12

      iter #   5 total cpu time :    35.0 secs   av.it.:   9.1
      thresh= 3.062E-07 alpha_mix =  0.700 |ddv_scf|^2 =  2.854E-13

     End of self-consistent calculation

     Convergence has been achieved 


     Representation #  4 modes #   5  6

     Self-consistent Calculation

      iter #   1 total cpu time :    35.6 secs   av.it.:   5.0
      thresh= 1.000E-02 alpha_mix =  0.700 |ddv_scf|^2 =  9.084E-07

      iter #   2 total cpu time :    36.1 secs   av.it.:   9.8
      thresh= 9.531E-05 alpha_mix =  0.700 |ddv_scf|^2 =  1.150E-07

      iter #   3 total cpu time :    36.6 secs   av.it.:   9.4
      thresh= 3.391E-05 alpha_mix =  0.700 |ddv_scf|^2 =  6.152E-09

      iter #   4 total cpu time :    37.4 secs   av.it.:   8.9
      thresh= 7.844E-06 alpha_mix =  0.700 |ddv_scf|^2 =  1.404E-11

      iter #   5 total cpu time :    37.9 secs   av.it.:   9.2
      thresh= 3.747E-07 alpha_mix =  0.700 |ddv_scf|^2 =  4.313E-14

     End of self-consistent calculation

     Convergence has been achieved 

     Number of q in the star =    6
     List of q in the star:
          1   0.000000000   0.500000000   0.000000000
          2   0.000000000  -0.500000000   0.000000000
          3   0.500000000   0.000000000   0.000000000
          4   0.000000000   0.000000000   0.500000000
          5   0.000000000   0.000000000  -0.500000000
          6  -0.500000000   0.000000000   0.000000000

     Diagonalizing the dynamical matrix

     q = (    0.000000000   0.500000000   0.000000000 ) 

 **************************************************************************
     freq (    1) =       4.216977 [THz] =     140.663200 [cm-1]
     freq (    2) =       4.216977 [THz] =     140.663200 [cm-1]
     freq (    3) =       7.189821 [THz] =     239.826627 [cm-1]
     freq (    4) =      13.719838 [THz] =     457.644524 [cm-1]
     freq (    5) =      13.719838 [THz] =     457.644524 [cm-1]
     freq (    6) =      14.330200 [THz] =     478.004026 [cm-1]
 **************************************************************************

     Mode symmetry, C_4v (4mm)  point group:

     freq (  1 -  2) =        140.7  [cm-1]   --> E    G_5 D_5       
     freq (  3 -  3) =        239.8  [cm-1]   --> A_1  G_1 D_1       
     freq (  4 -  5) =        457.6  [cm-1]   --> E    G_5 D_5       
     freq (  6 -  6) =        478.0  [cm-1]   --> B_2  G_4 D_2'      

     Calculation of q =    0.7500000  -0.2500000   0.7500000

   Info: using nr1, nr2, nr3 values from input

   Info: using nr1, nr2, nr3 values from input

     Parallelization info
     --------------------
     sticks:   dense  smooth     PW     G-vecs:    dense   smooth      PW
     Min          63      63     30                  684      684     216
     Max          64      64     31                  688      688     218
     Sum         253     253    121                 2741     2741     869



     bravais-lattice index     =            2
     lattice parameter (alat)  =      10.3310  a.u.
     unit-cell volume          =     275.6558 (a.u.)^3
     number of atoms/cell      =            2
     number of atomic types    =            1
     number of electrons       =         8.00
     number of Kohn-Sham states=            4
     kinetic-energy cutoff     =      18.0000  Ry
     charge density cutoff     =      72.0000  Ry
     Exchange-correlation      = SLA  PW   PBE  PBE ( 1  4  3  4 0 0)

     celldm(1)=  10.331000  celldm(2)=   0.000000  celldm(3)=   0.000000
     celldm(4)=   0.000000  celldm(5)=   0.000000  celldm(6)=   0.000000

     crystal axes: (cart. coord. in units of alat)
               a(1) = (  -0.500000   0.000000   0.500000 )  
               a(2) = (   0.000000   0.500000   0.500000 )  
               a(3) = (  -0.500000   0.500000   0.000000 )  

     reciprocal axes: (cart. coord. in units 2 pi/alat)
               b(1) = ( -1.000000 -1.000000  1.000000 )  
               b(2) = (  1.000000  1.000000  1.000000 )  
               b(3) = ( -1.000000  1.000000 -1.000000 )  


     PseudoPot. # 1 for Si read from file:
     /home/max/quantum_espresso/qe-6.1/pseudo/si_pbe_v1.uspp.F.UPF.txt
     MD5 check sum: a056efeee980c13900f22a371efd63c1
     Pseudo is Ultrasoft + core correction, Zval =  4.0
     Generated by new atomic code, or converted to UPF format
     Using radial grid of  899 points,  6 beta functions with: 
                l(1) =   0
                l(2) =   0
                l(3) =   1
                l(4) =   1
                l(5) =   2
                l(6) =   2
     Q(r) pseudized with  8 coefficients,  rinner =    0.900   0.900   0.900
                                                       0.900   0.900

     atomic species   valence    mass     pseudopotential
        Si             4.00    28.08600     Si( 1.00)

     48 Sym. Ops., with inversion, found



   Cartesian axes

     site n.     atom                  positions (alat units)
         1           Si  tau(   1) = (   0.0000000   0.0000000   0.0000000  )
         2           Si  tau(   2) = (   0.2500000   0.2500000   0.2500000  )

     number of k points=   288

     Number of k-points >= 100: set verbosity='high' to print them.

     Dense  grid:     2741 G-vectors     FFT dimensions: (  20,  20,  20)

     Estimated max dynamical RAM per process >       0.33MB

     Estimated total allocated dynamical RAM >       1.30MB

     Check: negative/imaginary core charge=   -0.000005    0.000000

     The potential is recalculated from file :
     ./_ph0/silicon.10.331.save/charge-density.dat

     Starting wfc are    8 atomic wfcs

     Band Structure Calculation
     Davidson diagonalization with overlap

     ethr =  1.25E-10,  avg # of iterations = 11.6

     total cpu time spent up to now is        5.2 secs

     End of band structure calculation

     Number of k-points >= 100: set verbosity='high' to print the bands.

     highest occupied level (ev):     5.7074

     Writing output data file silicon.10.331.save

                                                                                

     bravais-lattice index     =            2
     lattice parameter (alat)  =      10.3310  a.u.
     unit-cell volume          =     275.6558 (a.u.)^3
     number of atoms/cell      =            2
     number of atomic types    =            1
     kinetic-energy cut-off    =      18.0000  Ry
     charge density cut-off    =      72.0000  Ry
     convergence threshold     =      1.0E-12
     beta                      =       0.7000
     number of iterations used =            4
     Exchange-correlation      = SLA  PW   PBE  PBE ( 1  4  3  4 0 0)


     celldm(1)=   10.33100  celldm(2)=    0.00000  celldm(3)=    0.00000
     celldm(4)=    0.00000  celldm(5)=    0.00000  celldm(6)=    0.00000

     crystal axes: (cart. coord. in units of alat)
               a(1) = ( -0.5000  0.0000  0.5000 )  
               a(2) = (  0.0000  0.5000  0.5000 )  
               a(3) = ( -0.5000  0.5000  0.0000 )  

     reciprocal axes: (cart. coord. in units 2 pi/alat)
               b(1) = ( -1.0000 -1.0000  1.0000 )  
               b(2) = (  1.0000  1.0000  1.0000 )  
               b(3) = ( -1.0000  1.0000 -1.0000 )  


     Atoms inside the unit cell: 

     Cartesian axes

     site n.  atom      mass           positions (alat units)
        1     Si  28.0860   tau(    1) = (    0.00000    0.00000    0.00000  )
        2     Si  28.0860   tau(    2) = (    0.25000    0.25000    0.25000  )

     Computing dynamical matrix for 
                    q = (   0.7500000  -0.2500000   0.7500000 )

      2 Sym.Ops. (no q -> -q+G )


     G cutoff =  194.6514  (    685 G-vectors)     FFT grid: ( 20, 20, 20)
     number of k points=   288

     PseudoPot. # 1 for Si read from file:
     /home/max/quantum_espresso/qe-6.1/pseudo/si_pbe_v1.uspp.F.UPF.txt
     MD5 check sum: a056efeee980c13900f22a371efd63c1
     Pseudo is Ultrasoft + core correction, Zval =  4.0
     Generated by new atomic code, or converted to UPF format
     Using radial grid of  899 points,  6 beta functions with: 
                l(1) =   0
                l(2) =   0
                l(3) =   1
                l(4) =   1
                l(5) =   2
                l(6) =   2
     Q(r) pseudized with  8 coefficients,  rinner =    0.900   0.900   0.900
                                                       0.900   0.900

     Mode symmetry, C_s (m)     point group:


     Atomic displacements:
     There are   6 irreducible representations

     Representation     1      1 modes -A'  To be done

     Representation     2      1 modes -A'  To be done

     Representation     3      1 modes -A'  To be done

     Representation     4      1 modes -A'  To be done

     Representation     5      1 modes -A''  To be done

     Representation     6      1 modes -A''  To be done



     Alpha used in Ewald sum =   0.7000
     PHONON       :    36.94s CPU        41.64s WALL



     Representation #  1 mode #   1

     Self-consistent Calculation

      iter #   1 total cpu time :    42.2 secs   av.it.:   5.3
      thresh= 1.000E-02 alpha_mix =  0.700 |ddv_scf|^2 =  6.122E-05

      iter #   2 total cpu time :    43.3 secs   av.it.:   8.9
      thresh= 7.824E-04 alpha_mix =  0.700 |ddv_scf|^2 =  1.601E-04

      iter #   3 total cpu time :    44.0 secs   av.it.:   7.6
      thresh= 1.265E-03 alpha_mix =  0.700 |ddv_scf|^2 =  1.140E-06

      iter #   4 total cpu time :    44.7 secs   av.it.:   8.4
      thresh= 1.068E-04 alpha_mix =  0.700 |ddv_scf|^2 =  5.640E-08

      iter #   5 total cpu time :    45.6 secs   av.it.:   8.3
      thresh= 2.375E-05 alpha_mix =  0.700 |ddv_scf|^2 =  7.261E-09

      iter #   6 total cpu time :    46.4 secs   av.it.:   8.5
      thresh= 8.521E-06 alpha_mix =  0.700 |ddv_scf|^2 =  7.952E-11

      iter #   7 total cpu time :    47.3 secs   av.it.:   8.8
      thresh= 8.917E-07 alpha_mix =  0.700 |ddv_scf|^2 =  2.880E-12

      iter #   8 total cpu time :    48.1 secs   av.it.:   8.6
      thresh= 1.697E-07 alpha_mix =  0.700 |ddv_scf|^2 =  1.913E-13

     End of self-consistent calculation

     Convergence has been achieved 


     Representation #  2 mode #   2

     Self-consistent Calculation

      iter #   1 total cpu time :    48.7 secs   av.it.:   5.4
      thresh= 1.000E-02 alpha_mix =  0.700 |ddv_scf|^2 =  1.090E-04

      iter #   2 total cpu time :    49.6 secs   av.it.:   8.7
      thresh= 1.044E-03 alpha_mix =  0.700 |ddv_scf|^2 =  3.106E-04

      iter #   3 total cpu time :    50.3 secs   av.it.:   7.4
      thresh= 1.762E-03 alpha_mix =  0.700 |ddv_scf|^2 =  7.821E-07

      iter #   4 total cpu time :    51.2 secs   av.it.:   8.6
      thresh= 8.844E-05 alpha_mix =  0.700 |ddv_scf|^2 =  5.592E-08

      iter #   5 total cpu time :    51.9 secs   av.it.:   8.2
      thresh= 2.365E-05 alpha_mix =  0.700 |ddv_scf|^2 =  1.024E-08

      iter #   6 total cpu time :    52.6 secs   av.it.:   8.5
      thresh= 1.012E-05 alpha_mix =  0.700 |ddv_scf|^2 =  7.887E-11

      iter #   7 total cpu time :    53.5 secs   av.it.:   8.8
      thresh= 8.881E-07 alpha_mix =  0.700 |ddv_scf|^2 =  2.568E-12

      iter #   8 total cpu time :    54.3 secs   av.it.:   8.7
      thresh= 1.602E-07 alpha_mix =  0.700 |ddv_scf|^2 =  7.020E-13

     End of self-consistent calculation

     Convergence has been achieved 


     Representation #  3 mode #   3

     Self-consistent Calculation

      iter #   1 total cpu time :    54.9 secs   av.it.:   5.3
      thresh= 1.000E-02 alpha_mix =  0.700 |ddv_scf|^2 =  8.547E-05

      iter #   2 total cpu time :    55.9 secs   av.it.:   8.8
      thresh= 9.245E-04 alpha_mix =  0.700 |ddv_scf|^2 =  2.280E-04

      iter #   3 total cpu time :    56.6 secs   av.it.:   7.4
      thresh= 1.510E-03 alpha_mix =  0.700 |ddv_scf|^2 =  1.335E-06

      iter #   4 total cpu time :    57.5 secs   av.it.:   8.2
      thresh= 1.156E-04 alpha_mix =  0.700 |ddv_scf|^2 =  5.699E-08

      iter #   5 total cpu time :    58.2 secs   av.it.:   8.4
      thresh= 2.387E-05 alpha_mix =  0.700 |ddv_scf|^2 =  1.049E-08

      iter #   6 total cpu time :    59.2 secs   av.it.:   8.4
      thresh= 1.024E-05 alpha_mix =  0.700 |ddv_scf|^2 =  4.630E-11

      iter #   7 total cpu time :    59.9 secs   av.it.:   8.7
      thresh= 6.805E-07 alpha_mix =  0.700 |ddv_scf|^2 =  1.596E-12

      iter #   8 total cpu time :    60.7 secs   av.it.:   8.8
      thresh= 1.263E-07 alpha_mix =  0.700 |ddv_scf|^2 =  2.599E-13

     End of self-consistent calculation

     Convergence has been achieved 


     Representation #  4 mode #   4

     Self-consistent Calculation

      iter #   1 total cpu time :    61.6 secs   av.it.:   5.2
      thresh= 1.000E-02 alpha_mix =  0.700 |ddv_scf|^2 =  3.771E-05

      iter #   2 total cpu time :    62.3 secs   av.it.:   8.9
[...]
        k(   59) = (  -0.8750000   0.1250000  -0.1250000), wk =   0.0625000
        k(   60) = (  -1.3750000  -0.8750000  -0.1250000), wk =   0.0000000
        k(   61) = (  -1.1250000   0.3750000  -0.3750000), wk =   0.0625000
        k(   62) = (  -1.6250000  -0.6250000  -0.3750000), wk =   0.0000000
        k(   63) = (  -0.3750000   0.3750000   1.1250000), wk =   0.0625000
        k(   64) = (  -0.8750000  -0.6250000   1.1250000), wk =   0.0000000

     Dense  grid:     2741 G-vectors     FFT dimensions: (  20,  20,  20)

     Estimated max dynamical RAM per process >       0.33MB

     Estimated total allocated dynamical RAM >       1.30MB

     Check: negative/imaginary core charge=   -0.000005    0.000000

     The potential is recalculated from file :
     ./_ph0/silicon.10.331.save/charge-density.dat

     Starting wfc are    8 atomic wfcs

     Band Structure Calculation
     Davidson diagonalization with overlap

     ethr =  1.25E-10,  avg # of iterations = 11.6

     total cpu time spent up to now is        7.8 secs

     End of band structure calculation

          k =-0.1250 0.1250 0.1250 (   338 PWs)   bands (ev):

    -5.6279   4.3987   5.7074   5.7074

          k =-0.6250-0.8750 0.1250 (   359 PWs)   bands (ev):

    -2.4347  -0.8943   2.0284   3.1005

          k =-0.3750 0.3750-0.1250 (   352 PWs)   bands (ev):

    -4.6034   1.4051   3.7253   5.2254

          k =-0.8750-0.6250-0.1250 (   359 PWs)   bands (ev):

    -2.4347  -0.8943   2.0284   3.1005

          k = 0.3750-0.3750 0.6250 (   359 PWs)   bands (ev):

    -3.4670  -0.6688   3.7440   4.4549

          k =-0.1250-1.3750 0.6250 (   361 PWs)   bands (ev):

    -2.9718  -0.5885   2.0856   4.1389

          k = 0.1250-0.1250 0.3750 (   349 PWs)   bands (ev):

    -5.1013   2.7802   4.6999   4.7642

          k =-0.3750-1.1250 0.3750 (   361 PWs)   bands (ev):

    -2.9718  -0.5885   2.0856   4.1389

          k =-0.1250 0.6250 0.1250 (   349 PWs)   bands (ev):

    -4.0713   1.0677   3.3776   3.8261

          k =-0.6250-0.3750 0.1250 (   357 PWs)   bands (ev):

    -3.6572   0.1971   2.7375   4.1019

          k = 0.6250-0.1250 0.8750 (   359 PWs)   bands (ev):

    -2.4347  -0.8943   2.0284   3.1005

          k = 0.1250-1.1250 0.8750 (   358 PWs)   bands (ev):

    -2.6015  -0.7973   2.6349   3.3594

          k = 0.3750 0.1250 0.6250 (   357 PWs)   bands (ev):

    -3.6572   0.1971   2.7375   4.1019

          k =-0.1250-0.8750 0.6250 (   359 PWs)   bands (ev):

    -2.4347  -0.8943   2.0284   3.1005

          k =-0.1250-0.8750 0.1250 (   358 PWs)   bands (ev):

    -2.6015  -0.7973   2.6349   3.3594

          k =-0.6250-1.8750 0.1250 (   349 PWs)   bands (ev):

    -4.0713   1.0677   3.3776   3.8261

          k =-0.3750 0.3750 0.3750 (   353 PWs)   bands (ev):

    -4.1721   0.1187   4.9189   4.9189

          k =-0.8750-0.6250 0.3750 (   357 PWs)   bands (ev):

    -3.6572   0.1971   2.7375   4.1019

          k = 0.3750-0.3750 1.1250 (   361 PWs)   bands (ev):

    -2.9718  -0.5885   2.0856   4.1389

          k =-0.1250-1.3750 1.1250 (   359 PWs)   bands (ev):

    -2.4347  -0.8943   2.0284   3.1005

          k = 0.1250-0.3750 0.3750 (   352 PWs)   bands (ev):

    -4.6034   1.4051   3.7253   5.2254

          k =-0.3750-1.3750 0.3750 (   359 PWs)   bands (ev):

    -3.4670  -0.6688   3.7440   4.4549

          k = 0.3750-0.3750-0.1250 (   352 PWs)   bands (ev):

    -4.6034   1.4051   3.7253   5.2254

          k =-0.1250-1.3750-0.1250 (   349 PWs)   bands (ev):

    -4.0713   1.0677   3.3776   3.8261

          k =-0.6250 0.3750-0.3750 (   359 PWs)   bands (ev):

    -3.4670  -0.6688   3.7440   4.4549

          k =-1.1250-0.6250-0.3750 (   357 PWs)   bands (ev):

    -3.6572   0.1971   2.7375   4.1019

          k =-0.3750 0.3750 0.6250 (   359 PWs)   bands (ev):

    -3.4670  -0.6688   3.7440   4.4549

          k =-0.8750-0.6250 0.6250 (   352 PWs)   bands (ev):

    -4.6034   1.4051   3.7253   5.2254

          k =-0.3750 0.1250-0.1250 (   349 PWs)   bands (ev):

    -5.1013   2.7802   4.6999   4.7642

          k =-0.8750-0.8750-0.1250 (   358 PWs)   bands (ev):

    -2.6015  -0.7973   2.6349   3.3594

          k =-0.1250 0.1250 0.3750 (   349 PWs)   bands (ev):

    -5.1013   2.7802   4.6999   4.7642

          k =-0.6250-0.8750 0.3750 (   357 PWs)   bands (ev):

    -3.6572   0.1971   2.7375   4.1019

          k = 0.1250 0.6250-0.1250 (   349 PWs)   bands (ev):

    -4.0713   1.0677   3.3776   3.8261

          k =-0.3750-0.3750-0.1250 (   352 PWs)   bands (ev):

    -4.6034   1.4051   3.7253   5.2254

          k = 0.6250 0.1250-0.1250 (   349 PWs)   bands (ev):

    -4.0713   1.0677   3.3776   3.8261

          k = 0.1250-0.8750-0.1250 (   358 PWs)   bands (ev):

    -2.6015  -0.7973   2.6349   3.3594

          k =-0.8750 0.1250-0.6250 (   359 PWs)   bands (ev):

    -2.4347  -0.8943   2.0284   3.1005

          k =-1.3750-0.8750-0.6250 (   352 PWs)   bands (ev):

    -4.6034   1.4051   3.7253   5.2254

          k = 0.8750-0.1250 0.6250 (   359 PWs)   bands (ev):

    -2.4347  -0.8943   2.0284   3.1005

          k = 0.3750-1.1250 0.6250 (   357 PWs)   bands (ev):

    -3.6572   0.1971   2.7375   4.1019

          k =-0.6250 0.1250 0.8750 (   359 PWs)   bands (ev):

    -2.4347  -0.8943   2.0284   3.1005

          k =-1.1250-0.8750 0.8750 (   338 PWs)   bands (ev):

    -5.6279   4.3987   5.7074   5.7074

          k =-0.1250 0.8750 0.6250 (   359 PWs)   bands (ev):

    -2.4347  -0.8943   2.0284   3.1005

          k =-0.6250-0.1250 0.6250 (   361 PWs)   bands (ev):

    -2.9718  -0.5885   2.0856   4.1389

          k = 0.1250 0.8750-0.6250 (   359 PWs)   bands (ev):

    -2.4347  -0.8943   2.0284   3.1005

          k =-0.3750-0.1250-0.6250 (   357 PWs)   bands (ev):

    -3.6572   0.1971   2.7375   4.1019

          k =-0.6250-0.1250-0.3750 (   357 PWs)   bands (ev):

    -3.6572   0.1971   2.7375   4.1019

          k =-1.1250-1.1250-0.3750 (   349 PWs)   bands (ev):

    -4.0713   1.0677   3.3776   3.8261

          k = 0.6250 0.1250 0.3750 (   357 PWs)   bands (ev):

    -3.6572   0.1971   2.7375   4.1019

          k = 0.1250-0.8750 0.3750 (   359 PWs)   bands (ev):

    -2.4347  -0.8943   2.0284   3.1005

          k =-0.3750-0.1250 0.6250 (   357 PWs)   bands (ev):

    -3.6572   0.1971   2.7375   4.1019

          k =-0.8750-1.1250 0.6250 (   349 PWs)   bands (ev):

    -5.1013   2.7802   4.6999   4.7642

          k = 0.1250 0.6250 0.3750 (   357 PWs)   bands (ev):

    -3.6572   0.1971   2.7375   4.1019

          k =-0.3750-0.3750 0.3750 (   353 PWs)   bands (ev):

    -4.1721   0.1187   4.9189   4.9189

          k =-0.1250 0.6250-0.3750 (   357 PWs)   bands (ev):

    -3.6572   0.1971   2.7375   4.1019

          k =-0.6250-0.3750-0.3750 (   359 PWs)   bands (ev):

    -3.4670  -0.6688   3.7440   4.4549

          k = 0.1250-0.8750-0.1250 (   358 PWs)   bands (ev):

    -2.6015  -0.7973   2.6349   3.3594

          k =-0.3750-1.8750-0.1250 (   349 PWs)   bands (ev):

    -5.1013   2.7802   4.6999   4.7642

          k =-0.8750 0.1250-0.1250 (   358 PWs)   bands (ev):

    -2.6015  -0.7973   2.6349   3.3594

          k =-1.3750-0.8750-0.1250 (   359 PWs)   bands (ev):

    -2.4347  -0.8943   2.0284   3.1005

          k =-1.1250 0.3750-0.3750 (   361 PWs)   bands (ev):

    -2.9718  -0.5885   2.0856   4.1389

          k =-1.6250-0.6250-0.3750 (   359 PWs)   bands (ev):

    -3.4670  -0.6688   3.7440   4.4549

          k =-0.3750 0.3750 1.1250 (   361 PWs)   bands (ev):

    -2.9718  -0.5885   2.0856   4.1389

          k =-0.8750-0.6250 1.1250 (   349 PWs)   bands (ev):

    -5.1013   2.7802   4.6999   4.7642

     highest occupied level (ev):     5.7074

     Writing output data file silicon.10.331.save

                                                                                

     bravais-lattice index     =            2
     lattice parameter (alat)  =      10.3310  a.u.
     unit-cell volume          =     275.6558 (a.u.)^3
     number of atoms/cell      =            2
     number of atomic types    =            1
     kinetic-energy cut-off    =      18.0000  Ry
     charge density cut-off    =      72.0000  Ry
     convergence threshold     =      1.0E-12
     beta                      =       0.7000
     number of iterations used =            4
     Exchange-correlation      = SLA  PW   PBE  PBE ( 1  4  3  4 0 0)


     celldm(1)=   10.33100  celldm(2)=    0.00000  celldm(3)=    0.00000
     celldm(4)=    0.00000  celldm(5)=    0.00000  celldm(6)=    0.00000

     crystal axes: (cart. coord. in units of alat)
               a(1) = ( -0.5000  0.0000  0.5000 )  
               a(2) = (  0.0000  0.5000  0.5000 )  
               a(3) = ( -0.5000  0.5000  0.0000 )  

     reciprocal axes: (cart. coord. in units 2 pi/alat)
               b(1) = ( -1.0000 -1.0000  1.0000 )  
               b(2) = (  1.0000  1.0000  1.0000 )  
               b(3) = ( -1.0000  1.0000 -1.0000 )  


     Atoms inside the unit cell: 

     Cartesian axes

     site n.  atom      mass           positions (alat units)
        1     Si  28.0860   tau(    1) = (    0.00000    0.00000    0.00000  )
        2     Si  28.0860   tau(    2) = (    0.25000    0.25000    0.25000  )

     Computing dynamical matrix for 
                    q = (  -0.5000000  -1.0000000   0.0000000 )

      8 Sym.Ops. (no q -> -q+G )


     G cutoff =  194.6514  (    685 G-vectors)     FFT grid: ( 20, 20, 20)
     number of k points=    64

     PseudoPot. # 1 for Si read from file:
     /home/max/quantum_espresso/qe-6.1/pseudo/si_pbe_v1.uspp.F.UPF.txt
     MD5 check sum: a056efeee980c13900f22a371efd63c1
     Pseudo is Ultrasoft + core correction, Zval =  4.0
     Generated by new atomic code, or converted to UPF format
     Using radial grid of  899 points,  6 beta functions with: 
                l(1) =   0
                l(2) =   0
                l(3) =   1
                l(4) =   1
                l(5) =   2
                l(6) =   2
     Q(r) pseudized with  8 coefficients,  rinner =    0.900   0.900   0.900
                                                       0.900   0.900


     Atomic displacements:
     There are   3 irreducible representations

     Representation     1      2 modes -  To be done

     Representation     2      2 modes -  To be done

     Representation     3      2 modes -  To be done



     Alpha used in Ewald sum =   0.7000
     PHONON       :  1m27.56s CPU     1m37.49s WALL



     Representation #  1 modes #   1  2

     Self-consistent Calculation

      iter #   1 total cpu time :    97.8 secs   av.it.:   5.3
      thresh= 1.000E-02 alpha_mix =  0.700 |ddv_scf|^2 =  6.338E-06

      iter #   2 total cpu time :    98.1 secs   av.it.:   9.9
      thresh= 2.517E-04 alpha_mix =  0.700 |ddv_scf|^2 =  3.432E-06

      iter #   3 total cpu time :    98.5 secs   av.it.:   9.2
      thresh= 1.853E-04 alpha_mix =  0.700 |ddv_scf|^2 =  8.436E-09

      iter #   4 total cpu time :    98.9 secs   av.it.:   9.1
      thresh= 9.185E-06 alpha_mix =  0.700 |ddv_scf|^2 =  1.912E-11

      iter #   5 total cpu time :    99.5 secs   av.it.:   9.1
      thresh= 4.373E-07 alpha_mix =  0.700 |ddv_scf|^2 =  5.277E-13

     End of self-consistent calculation

     Convergence has been achieved 


     Representation #  2 modes #   3  4

     Self-consistent Calculation

      iter #   1 total cpu time :    99.7 secs   av.it.:   5.2
      thresh= 1.000E-02 alpha_mix =  0.700 |ddv_scf|^2 =  9.819E-06

      iter #   2 total cpu time :   100.1 secs   av.it.:   9.9
      thresh= 3.134E-04 alpha_mix =  0.700 |ddv_scf|^2 =  1.305E-05

      iter #   3 total cpu time :   100.5 secs   av.it.:   9.1
      thresh= 3.613E-04 alpha_mix =  0.700 |ddv_scf|^2 =  9.918E-09

      iter #   4 total cpu time :   100.8 secs   av.it.:   8.9
      thresh= 9.959E-06 alpha_mix =  0.700 |ddv_scf|^2 =  8.067E-11

      iter #   5 total cpu time :   101.4 secs   av.it.:   9.4
      thresh= 8.982E-07 alpha_mix =  0.700 |ddv_scf|^2 =  1.734E-12

      iter #   6 total cpu time :   101.7 secs   av.it.:   9.1
      thresh= 1.317E-07 alpha_mix =  0.700 |ddv_scf|^2 =  1.445E-14

     End of self-consistent calculation

     Convergence has been achieved 


     Representation #  3 modes #   5  6

     Self-consistent Calculation

      iter #   1 total cpu time :   102.0 secs   av.it.:   5.1
      thresh= 1.000E-02 alpha_mix =  0.700 |ddv_scf|^2 =  2.653E-06

      iter #   2 total cpu time :   102.3 secs   av.it.:   9.7
      thresh= 1.629E-04 alpha_mix =  0.700 |ddv_scf|^2 =  1.448E-06

      iter #   3 total cpu time :   102.7 secs   av.it.:   9.1
      thresh= 1.203E-04 alpha_mix =  0.700 |ddv_scf|^2 =  8.313E-09

      iter #   4 total cpu time :   103.2 secs   av.it.:   8.8
      thresh= 9.118E-06 alpha_mix =  0.700 |ddv_scf|^2 =  4.267E-11

      iter #   5 total cpu time :   103.6 secs   av.it.:   9.1
      thresh= 6.532E-07 alpha_mix =  0.700 |ddv_scf|^2 =  6.990E-13

     End of self-consistent calculation

     Convergence has been achieved 

     Number of q in the star =    6
     List of q in the star:
          1  -0.500000000  -1.000000000   0.000000000
          2   0.000000000   1.000000000   0.500000000
          3   0.000000000  -1.000000000  -0.500000000
          4   0.500000000   1.000000000   0.000000000
          5  -1.000000000  -0.500000000   0.000000000
          6   0.000000000  -0.500000000  -1.000000000

     Diagonalizing the dynamical matrix

     q = (   -0.500000000  -1.000000000   0.000000000 ) 

 **************************************************************************
     freq (    1) =       6.996465 [THz] =     233.376959 [cm-1]
     freq (    2) =       6.996465 [THz] =     233.376959 [cm-1]
     freq (    3) =      10.789958 [THz] =     359.914264 [cm-1]
     freq (    4) =      10.789958 [THz] =     359.914264 [cm-1]
     freq (    5) =      13.797001 [THz] =     460.218412 [cm-1]
     freq (    6) =      13.797001 [THz] =     460.218412 [cm-1]
 **************************************************************************

     init_run     :      0.55s CPU      0.59s WALL (       7 calls)
     electrons    :      5.53s CPU      6.36s WALL (       7 calls)

     Called by init_run:
     wfcinit      :      0.00s CPU      0.00s WALL (       7 calls)
     potinit      :      0.02s CPU      0.02s WALL (       7 calls)

     Called by electrons:
     c_bands      :      5.52s CPU      6.35s WALL (       7 calls)
     v_of_rho     :      0.01s CPU      0.01s WALL (       8 calls)
     newd         :      0.02s CPU      0.03s WALL (       8 calls)

     Called by c_bands:
     init_us_2    :      0.68s CPU      0.75s WALL (   17588 calls)
     cegterg      :      4.63s CPU      5.31s WALL (     796 calls)

     Called by sum_band:

     Called by *egterg:
     h_psi        :     50.71s CPU     56.12s WALL (  152178 calls)
     s_psi        :      5.86s CPU      6.37s WALL (  309076 calls)
     g_psi        :      0.03s CPU      0.03s WALL (    9268 calls)
     cdiaghg      :      0.51s CPU      0.59s WALL (   10064 calls)

     Called by h_psi:
     h_psi:pot    :     50.52s CPU     55.92s WALL (  152178 calls)
     h_psi:calbec :      5.41s CPU      5.98s WALL (  152178 calls)
     vloc_psi     :     41.95s CPU     46.50s WALL (  152178 calls)
     add_vuspsi   :      2.93s CPU      3.20s WALL (  152178 calls)

     General routines
     calbec       :     12.10s CPU     13.49s WALL (  345448 calls)
     fft          :      0.81s CPU      0.94s WALL (    5239 calls)
     ffts         :      0.19s CPU      0.20s WALL (    2748 calls)
     fftw         :     49.30s CPU     54.83s WALL ( 1377912 calls)
     davcio       :      0.32s CPU      0.39s WALL (   79045 calls)

     Parallel routines
     fft_scatter  :     17.06s CPU     19.71s WALL ( 1385899 calls)

     PHONON       :  1m33.12s CPU     1m43.60s WALL

     INITIALIZATION: 
     phq_setup    :      0.06s CPU      0.06s WALL (       8 calls)
     phq_init     :      2.64s CPU      2.91s WALL (       8 calls)

     phq_init     :      2.64s CPU      2.91s WALL (       8 calls)
     set_drhoc    :      0.28s CPU      0.29s WALL (      24 calls)
     init_vloc    :      0.01s CPU      0.01s WALL (       8 calls)
     init_us_1    :      0.52s CPU      0.54s WALL (       8 calls)
     newd         :      0.02s CPU      0.03s WALL (       8 calls)
     dvanqq       :      0.25s CPU      0.26s WALL (       8 calls)
     drho         :      1.56s CPU      1.78s WALL (       8 calls)

     DYNAMICAL MATRIX:
     dynmat0      :      0.60s CPU      0.62s WALL (       8 calls)
     phqscf       :     81.44s CPU     90.54s WALL (       8 calls)
     dynmatrix    :      0.01s CPU      0.01s WALL (       8 calls)

     phqscf       :     81.44s CPU     90.54s WALL (       8 calls)
     solve_linter :     80.42s CPU     89.38s WALL (      32 calls)
     drhodv       :      0.57s CPU      0.62s WALL (      32 calls)

     dynmat0      :      0.60s CPU      0.62s WALL (       8 calls)
     dynmat_us    :      0.37s CPU      0.39s WALL (       8 calls)
     d2ionq       :      0.01s CPU      0.01s WALL (       8 calls)
     dynmatcc     :      0.21s CPU      0.22s WALL (       8 calls)

     dynmat_us    :      0.37s CPU      0.39s WALL (       8 calls)
     addusdynmat  :      0.00s CPU      0.00s WALL (       8 calls)

     phqscf       :     81.44s CPU     90.54s WALL (       8 calls)
     solve_linter :     80.42s CPU     89.38s WALL (      32 calls)

     solve_linter :     80.42s CPU     89.38s WALL (      32 calls)
     dvqpsi_us    :      1.86s CPU      2.06s WALL (    2508 calls)
     ortho        :      1.52s CPU      1.75s WALL (   15550 calls)
     cgsolve      :     63.00s CPU     69.79s WALL (   15550 calls)
     incdrhoscf   :      5.54s CPU      6.17s WALL (   15550 calls)
     addusddens   :      1.20s CPU      1.27s WALL (     228 calls)
     vpsifft      :      4.05s CPU      4.59s WALL (   12922 calls)
     dv_of_drho   :      0.31s CPU      0.34s WALL (     295 calls)
     mix_pot      :      0.05s CPU      0.07s WALL (     201 calls)
     psymdvscf    :      0.81s CPU      0.84s WALL (     196 calls)
     newdq        :      1.41s CPU      1.72s WALL (     201 calls)
     adddvscf     :      0.47s CPU      0.51s WALL (   13042 calls)
     drhodvus     :      0.03s CPU      0.03s WALL (      32 calls)

     dvqpsi_us    :      1.86s CPU      2.06s WALL (    2508 calls)
     dvqpsi_us_on :      0.83s CPU      0.92s WALL (    2508 calls)

     cgsolve      :     63.00s CPU     69.79s WALL (   15550 calls)
     ch_psi       :     60.22s CPU     66.56s WALL (  141318 calls)

     ch_psi       :     60.22s CPU     66.56s WALL (  141318 calls)
     h_psi        :     50.71s CPU     56.12s WALL (  152178 calls)
     last         :     10.27s CPU     11.49s WALL (  141318 calls)

     h_psi        :     50.71s CPU     56.12s WALL (  152178 calls)
     add_vuspsi   :      2.93s CPU      3.20s WALL (  152178 calls)

     incdrhoscf   :      5.54s CPU      6.17s WALL (   15550 calls)
     addusdbec    :      0.92s CPU      1.06s WALL (   17998 calls)

     drhodvus     :      0.03s CPU      0.03s WALL (      32 calls)

      General routines
     calbec       :     12.10s CPU     13.49s WALL (  345448 calls)
     fft          :      0.81s CPU      0.94s WALL (    5239 calls)
     ffts         :      0.19s CPU      0.20s WALL (    2748 calls)
     fftw         :     49.30s CPU     54.83s WALL ( 1377912 calls)
     davcio       :      0.32s CPU      0.39s WALL (   79045 calls)
     write_rec    :      0.28s CPU      0.30s WALL (     233 calls)


     PHONON       :  1m33.12s CPU     1m43.60s WALL


   This run was terminated on:  12:21:36   9Nov2017            

=------------------------------------------------------------------------------=
   JOB DONE.
=------------------------------------------------------------------------------=
