
     Program PHONON v.6.1 (svn rev. 13369) starts on 10Nov2017 at 15:45:48 

     This program is part of the open-source Quantum ESPRESSO suite
     for quantum simulation of materials; please cite
         "P. Giannozzi et al., J. Phys.:Condens. Matter 21 395502 (2009);
          URL http://www.quantum-espresso.org", 
     in publications or presentations arising from this work. More details at
     http://www.quantum-espresso.org/quote

     Parallel version (MPI), running on     4 processors
     R & G space division:  proc/nbgrp/npool/nimage =       4

     Reading data from directory:
     ./silicon.10.290.save

   Info: using nr1, nr2, nr3 values from input

   Info: using nr1, nr2, nr3 values from input

     IMPORTANT: XC functional enforced from input :
     Exchange-correlation      = SLA  PW   PBE  PBE ( 1  4  3  4 0 0)
     Any further DFT definition will be discarded
     Please, verify this is what you really want


     Parallelization info
     --------------------
     sticks:   dense  smooth     PW     G-vecs:    dense   smooth      PW
     Min         217     108     37                 4240     1495     284
     Max         219     109     38                 4241     1498     285
     Sum         871     433    151                16961     5985    1139



     Dynamical matrices for ( 4, 4, 4)  uniform grid of q-points
     (   8q-points):
       N         xq(1)         xq(2)         xq(3) 
       1   0.000000000   0.000000000   0.000000000
       2  -0.250000000   0.250000000  -0.250000000
       3   0.500000000  -0.500000000   0.500000000
       4   0.000000000   0.500000000   0.000000000
       5   0.750000000  -0.250000000   0.750000000
       6   0.500000000   0.000000000   0.500000000
       7   0.000000000  -1.000000000   0.000000000
       8  -0.500000000  -1.000000000   0.000000000

     Calculation of q =    0.0000000   0.0000000   0.0000000

                                                                                

     bravais-lattice index     =            2
     lattice parameter (alat)  =      10.2900  a.u.
     unit-cell volume          =     272.3868 (a.u.)^3
     number of atoms/cell      =            2
     number of atomic types    =            1
     kinetic-energy cut-off    =      30.0000  Ry
     charge density cut-off    =     240.0000  Ry
     convergence threshold     =      1.0E-12
     beta                      =       0.7000
     number of iterations used =            4
     Exchange-correlation      = SLA  PW   PBE  PBE ( 1  4  3  4 0 0)


     celldm(1)=   10.29000  celldm(2)=    0.00000  celldm(3)=    0.00000
     celldm(4)=    0.00000  celldm(5)=    0.00000  celldm(6)=    0.00000

     crystal axes: (cart. coord. in units of alat)
               a(1) = ( -0.5000  0.0000  0.5000 )  
               a(2) = (  0.0000  0.5000  0.5000 )  
               a(3) = ( -0.5000  0.5000  0.0000 )  

     reciprocal axes: (cart. coord. in units 2 pi/alat)
               b(1) = ( -1.0000 -1.0000  1.0000 )  
               b(2) = (  1.0000  1.0000  1.0000 )  
               b(3) = ( -1.0000  1.0000 -1.0000 )  


     Atoms inside the unit cell: 

     Cartesian axes

     site n.  atom      mass           positions (alat units)
        1     Si  28.0860   tau(    1) = (    0.00000    0.00000    0.00000  )
        2     Si  28.0860   tau(    2) = (    0.25000    0.25000    0.25000  )

     Computing dynamical matrix for 
                    q = (   0.0000000   0.0000000   0.0000000 )

     49 Sym.Ops. (with q -> -q+G )


     G cutoff =  643.6981  (   4241 G-vectors)     FFT grid: ( 36, 36, 36)
     G cutoff =  321.8491  (   1497 G-vectors)  smooth grid: ( 25, 25, 25)
     number of k points=    10

     PseudoPot. # 1 for Si read from file:
     /home/s1333534/quantum_espresso/qe-6.1/pseudo/si_pbe_v1.uspp.F.UPF.txt
     MD5 check sum: a056efeee980c13900f22a371efd63c1
     Pseudo is Ultrasoft + core correction, Zval =  4.0
     Generated by new atomic code, or converted to UPF format
     Using radial grid of  899 points,  6 beta functions with: 
                l(1) =   0
                l(2) =   0
                l(3) =   1
                l(4) =   1
                l(5) =   2
                l(6) =   2
     Q(r) pseudized with  8 coefficients,  rinner =    0.900   0.900   0.900
                                                       0.900   0.900

     Mode symmetry, O_h (m-3m)  point group:


     Electric field:
     Dielectric constant
     Born effective charges in two ways 


     Atomic displacements:
     There are   2 irreducible representations

     Representation     1      3 modes -T_2g G_25' G_5+  To be done

     Representation     2      3 modes -T_1u G_15  G_4-  To be done



     Alpha used in Ewald sum =   2.5000
     PHONON       :     0.95s CPU         1.28s WALL


     Electric Fields Calculation

      iter #   1 total cpu time :     2.3 secs   av.it.:   5.7
      thresh= 1.000E-02 alpha_mix =  0.700 |ddv_scf|^2 =  1.338E-07

      iter #   2 total cpu time :     3.0 secs   av.it.:  11.7
      thresh= 3.658E-05 alpha_mix =  0.700 |ddv_scf|^2 =  7.744E-09

      iter #   3 total cpu time :     3.8 secs   av.it.:  11.4
      thresh= 8.800E-06 alpha_mix =  0.700 |ddv_scf|^2 =  5.093E-10

      iter #   4 total cpu time :     4.4 secs   av.it.:  10.3
      thresh= 2.257E-06 alpha_mix =  0.700 |ddv_scf|^2 =  3.271E-12

      iter #   5 total cpu time :     4.9 secs   av.it.:  11.1
      thresh= 1.809E-07 alpha_mix =  0.700 |ddv_scf|^2 =  3.256E-15

     End of electric fields calculation

          Dielectric constant in cartesian axis 

          (      13.883740916      -0.000000000       0.000000000 )
          (      -0.000000000      13.883740916       0.000000000 )
          (       0.000000000       0.000000000      13.883740916 )

          Effective charges (d Force / dE) in cartesian axis

           atom      1   Si 
      Ex  (       -0.03933        0.00000        0.00000 )
      Ey  (        0.00000       -0.03933        0.00000 )
      Ez  (       -0.00000        0.00000       -0.03933 )
           atom      2   Si 
      Ex  (       -0.03933        0.00000        0.00000 )
      Ey  (        0.00000       -0.03933       -0.00000 )
      Ez  (        0.00000       -0.00000       -0.03933 )


     Representation #  1 modes #   1  2  3

     Self-consistent Calculation

      iter #   1 total cpu time :     6.1 secs   av.it.:   5.1
      thresh= 1.000E-02 alpha_mix =  0.700 |ddv_scf|^2 =  2.356E-08

      iter #   2 total cpu time :     6.8 secs   av.it.:  11.5
      thresh= 1.535E-05 alpha_mix =  0.700 |ddv_scf|^2 =  9.668E-10

      iter #   3 total cpu time :     7.5 secs   av.it.:  11.1
      thresh= 3.109E-06 alpha_mix =  0.700 |ddv_scf|^2 =  6.576E-11

      iter #   4 total cpu time :     8.0 secs   av.it.:  10.1
      thresh= 8.109E-07 alpha_mix =  0.700 |ddv_scf|^2 =  1.602E-13

     End of self-consistent calculation

     Convergence has been achieved 


     Representation #  2 modes #   4  5  6

     Self-consistent Calculation

      iter #   1 total cpu time :     8.8 secs   av.it.:   5.2
      thresh= 1.000E-02 alpha_mix =  0.700 |ddv_scf|^2 =  1.860E-08

      iter #   2 total cpu time :     9.5 secs   av.it.:  11.6
      thresh= 1.364E-05 alpha_mix =  0.700 |ddv_scf|^2 =  1.098E-09

      iter #   3 total cpu time :    10.2 secs   av.it.:  11.1
      thresh= 3.313E-06 alpha_mix =  0.700 |ddv_scf|^2 =  6.790E-11

      iter #   4 total cpu time :    10.8 secs   av.it.:  11.3
      thresh= 8.240E-07 alpha_mix =  0.700 |ddv_scf|^2 =  2.619E-13

     End of self-consistent calculation

     Convergence has been achieved 

     Number of q in the star =    1
     List of q in the star:
          1   0.000000000   0.000000000   0.000000000

          Dielectric constant in cartesian axis 

          (      13.883740916      -0.000000000       0.000000000 )
          (      -0.000000000      13.883740916       0.000000000 )
          (       0.000000000       0.000000000      13.883740916 )

          Effective charges (d Force / dE) in cartesian axis

           atom      1   Si 
      Ex  (       -0.03933        0.00000        0.00000 )
      Ey  (        0.00000       -0.03933        0.00000 )
      Ez  (       -0.00000        0.00000       -0.03933 )
           atom      2   Si 
      Ex  (       -0.03933        0.00000        0.00000 )
      Ey  (        0.00000       -0.03933       -0.00000 )
      Ez  (        0.00000       -0.00000       -0.03933 )

          Effective charges (d P / du) in cartesian axis 

           atom      1   Si 
      Px  (       -0.07201        0.00000       -0.00000 )
      Py  (       -0.00000       -0.07201       -0.00000 )
      Pz  (       -0.00000        0.00000       -0.07201 )
           atom      2   Si 
      Px  (       -0.07201        0.00000        0.00000 )
      Py  (        0.00000       -0.07201       -0.00000 )
      Pz  (        0.00000       -0.00000       -0.07201 )

     Diagonalizing the dynamical matrix

     q = (    0.000000000   0.000000000   0.000000000 ) 

 **************************************************************************
     freq (    1) =      -0.472805 [THz] =     -15.771082 [cm-1]
     freq (    2) =      -0.472805 [THz] =     -15.771082 [cm-1]
     freq (    3) =      -0.472805 [THz] =     -15.771082 [cm-1]
     freq (    4) =      15.256557 [THz] =     508.903975 [cm-1]
     freq (    5) =      15.256557 [THz] =     508.903975 [cm-1]
     freq (    6) =      15.256557 [THz] =     508.903975 [cm-1]
 **************************************************************************

     Mode symmetry, O_h (m-3m)  point group:

     freq (  1 -  3) =        -15.8  [cm-1]   --> T_1u G_15  G_4- I  
     freq (  4 -  6) =        508.9  [cm-1]   --> T_2g G_25' G_5+ R  

     Calculation of q =   -0.2500000   0.2500000  -0.2500000

   Info: using nr1, nr2, nr3 values from input

   Info: using nr1, nr2, nr3 values from input

     Parallelization info
     --------------------
     sticks:   dense  smooth     PW     G-vecs:    dense   smooth      PW
     Min         217     108     37                 4240     1495     309
     Max         219     109     38                 4241     1498     312
     Sum         871     433    151                16961     5985    1243



     bravais-lattice index     =            2
     lattice parameter (alat)  =      10.2900  a.u.
     unit-cell volume          =     272.3868 (a.u.)^3
     number of atoms/cell      =            2
     number of atomic types    =            1
     number of electrons       =         8.00
     number of Kohn-Sham states=            4
     kinetic-energy cutoff     =      30.0000  Ry
     charge density cutoff     =     240.0000  Ry
     Exchange-correlation      = SLA  PW   PBE  PBE ( 1  4  3  4 0 0)

     celldm(1)=  10.290000  celldm(2)=   0.000000  celldm(3)=   0.000000
     celldm(4)=   0.000000  celldm(5)=   0.000000  celldm(6)=   0.000000

     crystal axes: (cart. coord. in units of alat)
               a(1) = (  -0.500000   0.000000   0.500000 )  
               a(2) = (   0.000000   0.500000   0.500000 )  
               a(3) = (  -0.500000   0.500000   0.000000 )  

     reciprocal axes: (cart. coord. in units 2 pi/alat)
               b(1) = ( -1.000000 -1.000000  1.000000 )  
               b(2) = (  1.000000  1.000000  1.000000 )  
               b(3) = ( -1.000000  1.000000 -1.000000 )  


     PseudoPot. # 1 for Si read from file:
     /home/s1333534/quantum_espresso/qe-6.1/pseudo/si_pbe_v1.uspp.F.UPF.txt
     MD5 check sum: a056efeee980c13900f22a371efd63c1
     Pseudo is Ultrasoft + core correction, Zval =  4.0
     Generated by new atomic code, or converted to UPF format
     Using radial grid of  899 points,  6 beta functions with: 
                l(1) =   0
                l(2) =   0
                l(3) =   1
                l(4) =   1
                l(5) =   2
                l(6) =   2
     Q(r) pseudized with  8 coefficients,  rinner =    0.900   0.900   0.900
                                                       0.900   0.900

     atomic species   valence    mass     pseudopotential
        Si             4.00    28.08600     Si( 1.00)

     48 Sym. Ops., with inversion, found



   Cartesian axes

     site n.     atom                  positions (alat units)
         1           Si  tau(   1) = (   0.0000000   0.0000000   0.0000000  )
         2           Si  tau(   2) = (   0.2500000   0.2500000   0.2500000  )

     number of k points=   120

     Number of k-points >= 100: set verbosity='high' to print them.

     Dense  grid:    16961 G-vectors     FFT dimensions: (  36,  36,  36)

     Smooth grid:     5985 G-vectors     FFT dimensions: (  25,  25,  25)

     Estimated max dynamical RAM per process >       1.51MB

     Estimated total allocated dynamical RAM >       6.03MB

     The potential is recalculated from file :
     ./_ph0/silicon.10.290.save/charge-density.dat

     Starting wfc are    8 atomic wfcs

     Band Structure Calculation
     Davidson diagonalization with overlap

     ethr =  1.25E-10,  avg # of iterations = 12.2

     total cpu time spent up to now is        1.4 secs

     End of band structure calculation

     Number of k-points >= 100: set verbosity='high' to print the bands.

     highest occupied level (ev):     5.8232

     Writing output data file silicon.10.290.save

                                                                                

     bravais-lattice index     =            2
     lattice parameter (alat)  =      10.2900  a.u.
     unit-cell volume          =     272.3868 (a.u.)^3
     number of atoms/cell      =            2
     number of atomic types    =            1
     kinetic-energy cut-off    =      30.0000  Ry
     charge density cut-off    =     240.0000  Ry
     convergence threshold     =      1.0E-12
     beta                      =       0.7000
     number of iterations used =            4
     Exchange-correlation      = SLA  PW   PBE  PBE ( 1  4  3  4 0 0)


     celldm(1)=   10.29000  celldm(2)=    0.00000  celldm(3)=    0.00000
     celldm(4)=    0.00000  celldm(5)=    0.00000  celldm(6)=    0.00000

     crystal axes: (cart. coord. in units of alat)
               a(1) = ( -0.5000  0.0000  0.5000 )  
               a(2) = (  0.0000  0.5000  0.5000 )  
               a(3) = ( -0.5000  0.5000  0.0000 )  

     reciprocal axes: (cart. coord. in units 2 pi/alat)
               b(1) = ( -1.0000 -1.0000  1.0000 )  
               b(2) = (  1.0000  1.0000  1.0000 )  
               b(3) = ( -1.0000  1.0000 -1.0000 )  


     Atoms inside the unit cell: 

     Cartesian axes

     site n.  atom      mass           positions (alat units)
        1     Si  28.0860   tau(    1) = (    0.00000    0.00000    0.00000  )
        2     Si  28.0860   tau(    2) = (    0.25000    0.25000    0.25000  )

     Computing dynamical matrix for 
                    q = (  -0.2500000   0.2500000  -0.2500000 )

      6 Sym.Ops. (no q -> -q+G )


     G cutoff =  643.6981  (   4241 G-vectors)     FFT grid: ( 36, 36, 36)
     G cutoff =  321.8491  (   1496 G-vectors)  smooth grid: ( 25, 25, 25)
     number of k points=   120

     PseudoPot. # 1 for Si read from file:
     /home/s1333534/quantum_espresso/qe-6.1/pseudo/si_pbe_v1.uspp.F.UPF.txt
     MD5 check sum: a056efeee980c13900f22a371efd63c1
     Pseudo is Ultrasoft + core correction, Zval =  4.0
     Generated by new atomic code, or converted to UPF format
     Using radial grid of  899 points,  6 beta functions with: 
                l(1) =   0
                l(2) =   0
                l(3) =   1
                l(4) =   1
                l(5) =   2
                l(6) =   2
     Q(r) pseudized with  8 coefficients,  rinner =    0.900   0.900   0.900
                                                       0.900   0.900

     Mode symmetry, C_3v (3m)   point group:


     Atomic displacements:
     There are   4 irreducible representations

     Representation     1      1 modes -A_1  L_1  To be done

     Representation     2      1 modes -A_1  L_1  To be done

     Representation     3      2 modes -E    L_3  To be done

     Representation     4      2 modes -E    L_3  To be done



     Alpha used in Ewald sum =   2.5000
     PHONON       :    10.54s CPU        14.02s WALL



     Representation #  1 mode #   1

     Self-consistent Calculation

      iter #   1 total cpu time :    14.5 secs   av.it.:   5.9
      thresh= 1.000E-02 alpha_mix =  0.700 |ddv_scf|^2 =  4.316E-04

      iter #   2 total cpu time :    15.1 secs   av.it.:   9.0
      thresh= 2.077E-03 alpha_mix =  0.700 |ddv_scf|^2 =  6.548E-03

      iter #   3 total cpu time :    15.6 secs   av.it.:   7.0
      thresh= 8.092E-03 alpha_mix =  0.700 |ddv_scf|^2 =  2.720E-07

      iter #   4 total cpu time :    16.2 secs   av.it.:   9.6
      thresh= 5.216E-05 alpha_mix =  0.700 |ddv_scf|^2 =  1.770E-08

      iter #   5 total cpu time :    16.8 secs   av.it.:   9.5
      thresh= 1.330E-05 alpha_mix =  0.700 |ddv_scf|^2 =  3.349E-10

      iter #   6 total cpu time :    17.4 secs   av.it.:   9.7
      thresh= 1.830E-06 alpha_mix =  0.700 |ddv_scf|^2 =  1.064E-09

      iter #   7 total cpu time :    17.9 secs   av.it.:   7.6
      thresh= 3.261E-06 alpha_mix =  0.700 |ddv_scf|^2 =  3.719E-11

      iter #   8 total cpu time :    18.5 secs   av.it.:   9.3
      thresh= 6.099E-07 alpha_mix =  0.700 |ddv_scf|^2 =  4.907E-13

     End of self-consistent calculation

     Convergence has been achieved 


     Representation #  2 mode #   2

     Self-consistent Calculation

      iter #   1 total cpu time :    19.0 secs   av.it.:   5.9
      thresh= 1.000E-02 alpha_mix =  0.700 |ddv_scf|^2 =  4.316E-04

      iter #   2 total cpu time :    19.6 secs   av.it.:   9.0
      thresh= 2.077E-03 alpha_mix =  0.700 |ddv_scf|^2 =  6.548E-03

      iter #   3 total cpu time :    20.1 secs   av.it.:   7.0
      thresh= 8.092E-03 alpha_mix =  0.700 |ddv_scf|^2 =  2.720E-07

      iter #   4 total cpu time :    20.7 secs   av.it.:   9.6
      thresh= 5.216E-05 alpha_mix =  0.700 |ddv_scf|^2 =  1.770E-08

      iter #   5 total cpu time :    21.3 secs   av.it.:   9.5
      thresh= 1.330E-05 alpha_mix =  0.700 |ddv_scf|^2 =  3.349E-10

      iter #   6 total cpu time :    21.9 secs   av.it.:   9.7
      thresh= 1.830E-06 alpha_mix =  0.700 |ddv_scf|^2 =  1.064E-09

      iter #   7 total cpu time :    22.5 secs   av.it.:   7.6
      thresh= 3.261E-06 alpha_mix =  0.700 |ddv_scf|^2 =  3.719E-11

      iter #   8 total cpu time :    23.1 secs   av.it.:   9.3
      thresh= 6.099E-07 alpha_mix =  0.700 |ddv_scf|^2 =  4.907E-13

     End of self-consistent calculation

     Convergence has been achieved 


     Representation #  3 modes #   3  4

     Self-consistent Calculation

      iter #   1 total cpu time :    24.0 secs   av.it.:   5.2
      thresh= 1.000E-02 alpha_mix =  0.700 |ddv_scf|^2 =  6.639E-08

      iter #   2 total cpu time :    25.2 secs   av.it.:  11.4
      thresh= 2.577E-05 alpha_mix =  0.700 |ddv_scf|^2 =  4.267E-09

      iter #   3 total cpu time :    26.5 secs   av.it.:  11.1
      thresh= 6.532E-06 alpha_mix =  0.700 |ddv_scf|^2 =  2.261E-10

      iter #   4 total cpu time :    27.7 secs   av.it.:  11.0
      thresh= 1.504E-06 alpha_mix =  0.700 |ddv_scf|^2 =  8.529E-13

     End of self-consistent calculation

     Convergence has been achieved 


     Representation #  4 modes #   5  6

     Self-consistent Calculation

      iter #   1 total cpu time :    28.6 secs   av.it.:   5.2
      thresh= 1.000E-02 alpha_mix =  0.700 |ddv_scf|^2 =  6.641E-08

      iter #   2 total cpu time :    29.9 secs   av.it.:  11.4
      thresh= 2.577E-05 alpha_mix =  0.700 |ddv_scf|^2 =  4.268E-09

      iter #   3 total cpu time :    31.1 secs   av.it.:  11.2
      thresh= 6.533E-06 alpha_mix =  0.700 |ddv_scf|^2 =  2.261E-10

      iter #   4 total cpu time :    32.3 secs   av.it.:  11.0
      thresh= 1.504E-06 alpha_mix =  0.700 |ddv_scf|^2 =  8.572E-13

     End of self-consistent calculation

     Convergence has been achieved 

     Number of q in the star =    8
     List of q in the star:
          1  -0.250000000   0.250000000  -0.250000000
          2   0.250000000  -0.250000000  -0.250000000
          3   0.250000000  -0.250000000   0.250000000
          4   0.250000000   0.250000000   0.250000000
          5  -0.250000000  -0.250000000  -0.250000000
          6  -0.250000000  -0.250000000   0.250000000
          7  -0.250000000   0.250000000   0.250000000
          8   0.250000000   0.250000000  -0.250000000

     Diagonalizing the dynamical matrix

     q = (   -0.250000000   0.250000000  -0.250000000 ) 

 **************************************************************************
     freq (    1) =       2.760428 [THz] =      92.077965 [cm-1]
     freq (    2) =       2.760428 [THz] =      92.077965 [cm-1]
     freq (    3) =       6.818202 [THz] =     227.430733 [cm-1]
     freq (    4) =      14.404071 [THz] =     480.468096 [cm-1]
     freq (    5) =      14.699577 [THz] =     490.325111 [cm-1]
     freq (    6) =      14.699577 [THz] =     490.325111 [cm-1]
 **************************************************************************

     Mode symmetry, C_3v (3m)   point group:

     freq (  1 -  2) =         92.1  [cm-1]   --> E    L_3           
     freq (  3 -  3) =        227.4  [cm-1]   --> A_1  L_1           
     freq (  4 -  4) =        480.5  [cm-1]   --> A_1  L_1           
     freq (  5 -  6) =        490.3  [cm-1]   --> E    L_3           

     Calculation of q =    0.5000000  -0.5000000   0.5000000

   Info: using nr1, nr2, nr3 values from input

   Info: using nr1, nr2, nr3 values from input

     Parallelization info
     --------------------
     sticks:   dense  smooth     PW     G-vecs:    dense   smooth      PW
     Min         217     108     40                 4240     1495     351
     Max         219     109     41                 4241     1498     354
     Sum         871     433    163                16961     5985    1411



     bravais-lattice index     =            2
     lattice parameter (alat)  =      10.2900  a.u.
     unit-cell volume          =     272.3868 (a.u.)^3
     number of atoms/cell      =            2
     number of atomic types    =            1
     number of electrons       =         8.00
     number of Kohn-Sham states=            4
     kinetic-energy cutoff     =      30.0000  Ry
     charge density cutoff     =     240.0000  Ry
     Exchange-correlation      = SLA  PW   PBE  PBE ( 1  4  3  4 0 0)

     celldm(1)=  10.290000  celldm(2)=   0.000000  celldm(3)=   0.000000
     celldm(4)=   0.000000  celldm(5)=   0.000000  celldm(6)=   0.000000

     crystal axes: (cart. coord. in units of alat)
               a(1) = (  -0.500000   0.000000   0.500000 )  
               a(2) = (   0.000000   0.500000   0.500000 )  
               a(3) = (  -0.500000   0.500000   0.000000 )  

     reciprocal axes: (cart. coord. in units 2 pi/alat)
               b(1) = ( -1.000000 -1.000000  1.000000 )  
               b(2) = (  1.000000  1.000000  1.000000 )  
               b(3) = ( -1.000000  1.000000 -1.000000 )  


     PseudoPot. # 1 for Si read from file:
     /home/s1333534/quantum_espresso/qe-6.1/pseudo/si_pbe_v1.uspp.F.UPF.txt
     MD5 check sum: a056efeee980c13900f22a371efd63c1
     Pseudo is Ultrasoft + core correction, Zval =  4.0
     Generated by new atomic code, or converted to UPF format
     Using radial grid of  899 points,  6 beta functions with: 
                l(1) =   0
                l(2) =   0
                l(3) =   1
                l(4) =   1
                l(5) =   2
                l(6) =   2
     Q(r) pseudized with  8 coefficients,  rinner =    0.900   0.900   0.900
                                                       0.900   0.900

     atomic species   valence    mass     pseudopotential
        Si             4.00    28.08600     Si( 1.00)

     48 Sym. Ops., with inversion, found



   Cartesian axes

     site n.     atom                  positions (alat units)
         1           Si  tau(   1) = (   0.0000000   0.0000000   0.0000000  )
         2           Si  tau(   2) = (   0.2500000   0.2500000   0.2500000  )

     number of k points=    60
                       cart. coord. in units 2pi/alat
        k(    1) = (  -0.1250000   0.1250000   0.1250000), wk =   0.0468750
        k(    2) = (   0.3750000  -0.3750000   0.6250000), wk =   0.0000000
        k(    3) = (  -0.3750000   0.3750000  -0.1250000), wk =   0.0468750
        k(    4) = (   0.1250000  -0.1250000   0.3750000), wk =   0.0000000
        k(    5) = (   0.3750000  -0.3750000   0.6250000), wk =   0.0468750
        k(    6) = (   0.8750000  -0.8750000   1.1250000), wk =   0.0000000
        k(    7) = (   0.1250000  -0.1250000   0.3750000), wk =   0.0468750
        k(    8) = (   0.6250000  -0.6250000   0.8750000), wk =   0.0000000
        k(    9) = (  -0.1250000   0.6250000   0.1250000), wk =   0.0937500
        k(   10) = (   0.3750000   0.1250000   0.6250000), wk =   0.0000000
        k(   11) = (   0.6250000  -0.1250000   0.8750000), wk =   0.0937500
        k(   12) = (   1.1250000  -0.6250000   1.3750000), wk =   0.0000000
        k(   13) = (   0.3750000   0.1250000   0.6250000), wk =   0.0937500
        k(   14) = (   0.8750000  -0.3750000   1.1250000), wk =   0.0000000
        k(   15) = (  -0.1250000  -0.8750000   0.1250000), wk =   0.0937500
        k(   16) = (   0.3750000  -1.3750000   0.6250000), wk =   0.0000000
        k(   17) = (  -0.3750000   0.3750000   0.3750000), wk =   0.0468750
        k(   18) = (   0.1250000  -0.1250000   0.8750000), wk =   0.0000000
        k(   19) = (   0.3750000  -0.3750000   1.1250000), wk =   0.0468750
        k(   20) = (   0.8750000  -0.8750000   1.6250000), wk =   0.0000000
        k(   21) = (   0.1250000  -0.1250000   0.1250000), wk =   0.0156250
        k(   22) = (   0.6250000  -0.6250000   0.6250000), wk =   0.0000000
        k(   23) = (  -0.3750000  -0.3750000  -0.1250000), wk =   0.0937500
        k(   24) = (   0.1250000  -0.8750000   0.3750000), wk =   0.0000000
        k(   25) = (  -0.1250000  -0.3750000   0.3750000), wk =   0.0468750
        k(   26) = (   0.3750000  -0.8750000   0.8750000), wk =   0.0000000
        k(   27) = (   0.3750000   0.3750000   0.6250000), wk =   0.0937500
        k(   28) = (   0.8750000  -0.1250000   1.1250000), wk =   0.0000000
        k(   29) = (   0.6250000   0.3750000  -0.3750000), wk =   0.0468750
        k(   30) = (   1.1250000  -0.1250000   0.1250000), wk =   0.0000000
        k(   31) = (   0.1250000   0.1250000   0.3750000), wk =   0.0937500
        k(   32) = (   0.6250000  -0.3750000   0.8750000), wk =   0.0000000
        k(   33) = (   0.3750000   0.1250000  -0.1250000), wk =   0.0468750
        k(   34) = (   0.8750000  -0.3750000   0.3750000), wk =   0.0000000
        k(   35) = (  -0.1250000  -0.6250000  -0.1250000), wk =   0.0468750
        k(   36) = (   0.3750000  -1.1250000   0.3750000), wk =   0.0000000
        k(   37) = (   0.1250000  -0.6250000   0.1250000), wk =   0.0468750
        k(   38) = (   0.6250000  -1.1250000   0.6250000), wk =   0.0000000
        k(   39) = (   0.6250000   0.1250000   0.8750000), wk =   0.0937500
        k(   40) = (   1.1250000  -0.3750000   1.3750000), wk =   0.0000000
        k(   41) = (  -0.8750000   0.1250000   0.6250000), wk =   0.0937500
        k(   42) = (  -0.3750000  -0.3750000   1.1250000), wk =   0.0000000
        k(   43) = (   0.8750000   0.1250000  -0.6250000), wk =   0.0937500
        k(   44) = (   1.3750000  -0.3750000  -0.1250000), wk =   0.0000000
        k(   45) = (   0.3750000  -0.1250000   0.6250000), wk =   0.0937500
        k(   46) = (   0.8750000  -0.6250000   1.1250000), wk =   0.0000000
        k(   47) = (  -0.6250000  -0.1250000   0.3750000), wk =   0.0937500
        k(   48) = (  -0.1250000  -0.6250000   0.8750000), wk =   0.0000000
        k(   49) = (   0.6250000  -0.1250000  -0.3750000), wk =   0.0937500
        k(   50) = (   1.1250000  -0.6250000   0.1250000), wk =   0.0000000
        k(   51) = (  -0.1250000   0.8750000  -0.1250000), wk =   0.0468750
        k(   52) = (   0.3750000   0.3750000   0.3750000), wk =   0.0000000
        k(   53) = (   0.1250000   0.8750000   0.1250000), wk =   0.0468750
        k(   54) = (   0.6250000   0.3750000   0.6250000), wk =   0.0000000
        k(   55) = (   0.3750000  -0.3750000   0.3750000), wk =   0.0156250
        k(   56) = (   0.8750000  -0.8750000   0.8750000), wk =   0.0000000
        k(   57) = (   0.3750000   0.3750000   1.1250000), wk =   0.0937500
        k(   58) = (   0.8750000  -0.1250000   1.6250000), wk =   0.0000000
        k(   59) = (   1.1250000   0.3750000  -0.3750000), wk =   0.0468750
        k(   60) = (   1.6250000  -0.1250000   0.1250000), wk =   0.0000000

     Dense  grid:    16961 G-vectors     FFT dimensions: (  36,  36,  36)

     Smooth grid:     5985 G-vectors     FFT dimensions: (  25,  25,  25)

     Estimated max dynamical RAM per process >       1.51MB

     Estimated total allocated dynamical RAM >       6.03MB

     The potential is recalculated from file :
     ./_ph0/silicon.10.290.save/charge-density.dat

     Starting wfc are    8 atomic wfcs

     Band Structure Calculation
     Davidson diagonalization with overlap

     ethr =  1.25E-10,  avg # of iterations = 12.2

     total cpu time spent up to now is        2.4 secs

     End of band structure calculation

          k =-0.1250 0.1250 0.1250 (   746 PWs)   bands (ev):

    -5.5913   4.5141   5.8232   5.8232

          k = 0.3750-0.3750 0.6250 (   759 PWs)   bands (ev):

    -3.3971  -0.6030   3.8432   4.5587

          k =-0.3750 0.3750-0.1250 (   757 PWs)   bands (ev):

    -4.5533   1.5013   3.8165   5.3400

          k = 0.1250-0.1250 0.3750 (   765 PWs)   bands (ev):

    -5.0578   2.8925   4.8026   4.8738

          k = 0.3750-0.3750 0.6250 (   759 PWs)   bands (ev):

    -3.3971  -0.6030   3.8432   4.5587

          k = 0.8750-0.8750 1.1250 (   746 PWs)   bands (ev):

    -5.5913   4.5141   5.8232   5.8232

          k = 0.1250-0.1250 0.3750 (   765 PWs)   bands (ev):

    -5.0578   2.8925   4.8026   4.8738

          k = 0.6250-0.6250 0.8750 (   757 PWs)   bands (ev):

    -4.5533   1.5013   3.8165   5.3400

          k =-0.1250 0.6250 0.1250 (   760 PWs)   bands (ev):

    -4.0153   1.1782   3.4613   3.9194

          k = 0.3750 0.1250 0.6250 (   756 PWs)   bands (ev):

    -3.5938   0.2889   2.8146   4.1967

          k = 0.6250-0.1250 0.8750 (   751 PWs)   bands (ev):

    -2.3543  -0.8011   2.0865   3.1769

          k = 1.1250-0.6250 1.3750 (   757 PWs)   bands (ev):

    -4.5533   1.5013   3.8165   5.3400

          k = 0.3750 0.1250 0.6250 (   756 PWs)   bands (ev):

    -3.5938   0.2889   2.8146   4.1967

          k = 0.8750-0.3750 1.1250 (   760 PWs)   bands (ev):

    -4.0153   1.1782   3.4613   3.9194

          k =-0.1250-0.8750 0.1250 (   757 PWs)   bands (ev):

    -2.5269  -0.7011   2.7049   3.4480

          k = 0.3750-1.3750 0.6250 (   759 PWs)   bands (ev):

    -3.3971  -0.6030   3.8432   4.5587

          k =-0.3750 0.3750 0.3750 (   763 PWs)   bands (ev):

    -4.1143   0.1927   5.0295   5.0295

          k = 0.1250-0.1250 0.8750 (   757 PWs)   bands (ev):

    -2.5269  -0.7011   2.7049   3.4480

          k = 0.3750-0.3750 1.1250 (   757 PWs)   bands (ev):

    -2.8964  -0.5052   2.1502   4.2376

          k = 0.8750-0.8750 1.6250 (   760 PWs)   bands (ev):

    -4.0153   1.1782   3.4613   3.9194

          k = 0.1250-0.1250 0.1250 (   746 PWs)   bands (ev):

    -5.5913   4.5141   5.8232   5.8232

          k = 0.6250-0.6250 0.6250 (   763 PWs)   bands (ev):

    -4.1143   0.1927   5.0295   5.0295

          k =-0.3750-0.3750-0.1250 (   757 PWs)   bands (ev):

    -4.5533   1.5013   3.8165   5.3400

          k = 0.1250-0.8750 0.3750 (   751 PWs)   bands (ev):

    -2.3543  -0.8011   2.0865   3.1769

          k =-0.1250-0.3750 0.3750 (   757 PWs)   bands (ev):

    -4.5533   1.5013   3.8165   5.3400

          k = 0.3750-0.8750 0.8750 (   760 PWs)   bands (ev):

    -4.0153   1.1782   3.4613   3.9194

          k = 0.3750 0.3750 0.6250 (   759 PWs)   bands (ev):

    -3.3971  -0.6030   3.8432   4.5587

          k = 0.8750-0.1250 1.1250 (   757 PWs)   bands (ev):

    -2.5269  -0.7011   2.7049   3.4480

          k = 0.6250 0.3750-0.3750 (   759 PWs)   bands (ev):

    -3.3971  -0.6030   3.8432   4.5587

          k = 1.1250-0.1250 0.1250 (   757 PWs)   bands (ev):

    -2.5269  -0.7011   2.7049   3.4480

          k = 0.1250 0.1250 0.3750 (   765 PWs)   bands (ev):

    -5.0578   2.8925   4.8026   4.8738

          k = 0.6250-0.3750 0.8750 (   756 PWs)   bands (ev):

    -3.5938   0.2889   2.8146   4.1967

          k = 0.3750 0.1250-0.1250 (   765 PWs)   bands (ev):

    -5.0578   2.8925   4.8026   4.8738

          k = 0.8750-0.3750 0.3750 (   757 PWs)   bands (ev):

    -2.8964  -0.5052   2.1502   4.2376

          k =-0.1250-0.6250-0.1250 (   760 PWs)   bands (ev):

    -4.0153   1.1782   3.4613   3.9194

          k = 0.3750-1.1250 0.3750 (   757 PWs)   bands (ev):

    -2.8964  -0.5052   2.1502   4.2376

          k = 0.1250-0.6250 0.1250 (   760 PWs)   bands (ev):

    -4.0153   1.1782   3.4613   3.9194

          k = 0.6250-1.1250 0.6250 (   757 PWs)   bands (ev):

    -4.5533   1.5013   3.8165   5.3400

          k = 0.6250 0.1250 0.8750 (   751 PWs)   bands (ev):

    -2.3543  -0.8011   2.0865   3.1769

          k = 1.1250-0.3750 1.3750 (   756 PWs)   bands (ev):

    -3.5938   0.2889   2.8146   4.1967

          k =-0.8750 0.1250 0.6250 (   751 PWs)   bands (ev):

    -2.3543  -0.8011   2.0865   3.1769

          k =-0.3750-0.3750 1.1250 (   757 PWs)   bands (ev):

    -2.8964  -0.5052   2.1502   4.2376

          k = 0.8750 0.1250-0.6250 (   751 PWs)   bands (ev):

    -2.3543  -0.8011   2.0865   3.1769

          k = 1.3750-0.3750-0.1250 (   756 PWs)   bands (ev):

    -3.5938   0.2889   2.8146   4.1967

          k = 0.3750-0.1250 0.6250 (   756 PWs)   bands (ev):

    -3.5938   0.2889   2.8146   4.1967

          k = 0.8750-0.6250 1.1250 (   765 PWs)   bands (ev):

    -5.0578   2.8925   4.8026   4.8738

          k =-0.6250-0.1250 0.3750 (   756 PWs)   bands (ev):

    -3.5938   0.2889   2.8146   4.1967

          k =-0.1250-0.6250 0.8750 (   751 PWs)   bands (ev):

    -2.3543  -0.8011   2.0865   3.1769

          k = 0.6250-0.1250-0.3750 (   756 PWs)   bands (ev):

    -3.5938   0.2889   2.8146   4.1967

          k = 1.1250-0.6250 0.1250 (   751 PWs)   bands (ev):

    -2.3543  -0.8011   2.0865   3.1769

          k =-0.1250 0.8750-0.1250 (   757 PWs)   bands (ev):

    -2.5269  -0.7011   2.7049   3.4480

          k = 0.3750 0.3750 0.3750 (   763 PWs)   bands (ev):

    -4.1143   0.1927   5.0295   5.0295

          k = 0.1250 0.8750 0.1250 (   757 PWs)   bands (ev):

    -2.5269  -0.7011   2.7049   3.4480

          k = 0.6250 0.3750 0.6250 (   759 PWs)   bands (ev):

    -3.3971  -0.6030   3.8432   4.5587

          k = 0.3750-0.3750 0.3750 (   763 PWs)   bands (ev):

    -4.1143   0.1927   5.0295   5.0295

          k = 0.8750-0.8750 0.8750 (   746 PWs)   bands (ev):

    -5.5913   4.5141   5.8232   5.8232

          k = 0.3750 0.3750 1.1250 (   757 PWs)   bands (ev):

    -2.8964  -0.5052   2.1502   4.2376

          k = 0.8750-0.1250 1.6250 (   751 PWs)   bands (ev):

    -2.3543  -0.8011   2.0865   3.1769

          k = 1.1250 0.3750-0.3750 (   757 PWs)   bands (ev):

    -2.8964  -0.5052   2.1502   4.2376

          k = 1.6250-0.1250 0.1250 (   765 PWs)   bands (ev):

    -5.0578   2.8925   4.8026   4.8738

     highest occupied level (ev):     5.8232

     Writing output data file silicon.10.290.save

                                                                                

     bravais-lattice index     =            2
     lattice parameter (alat)  =      10.2900  a.u.
     unit-cell volume          =     272.3868 (a.u.)^3
     number of atoms/cell      =            2
     number of atomic types    =            1
     kinetic-energy cut-off    =      30.0000  Ry
     charge density cut-off    =     240.0000  Ry
     convergence threshold     =      1.0E-12
     beta                      =       0.7000
     number of iterations used =            4
     Exchange-correlation      = SLA  PW   PBE  PBE ( 1  4  3  4 0 0)


     celldm(1)=   10.29000  celldm(2)=    0.00000  celldm(3)=    0.00000
     celldm(4)=    0.00000  celldm(5)=    0.00000  celldm(6)=    0.00000

     crystal axes: (cart. coord. in units of alat)
               a(1) = ( -0.5000  0.0000  0.5000 )  
               a(2) = (  0.0000  0.5000  0.5000 )  
               a(3) = ( -0.5000  0.5000  0.0000 )  

     reciprocal axes: (cart. coord. in units 2 pi/alat)
               b(1) = ( -1.0000 -1.0000  1.0000 )  
               b(2) = (  1.0000  1.0000  1.0000 )  
               b(3) = ( -1.0000  1.0000 -1.0000 )  


     Atoms inside the unit cell: 

     Cartesian axes

     site n.  atom      mass           positions (alat units)
        1     Si  28.0860   tau(    1) = (    0.00000    0.00000    0.00000  )
        2     Si  28.0860   tau(    2) = (    0.25000    0.25000    0.25000  )

     Computing dynamical matrix for 
                    q = (   0.5000000  -0.5000000   0.5000000 )

     13 Sym.Ops. (with q -> -q+G )


     G cutoff =  643.6981  (   4241 G-vectors)     FFT grid: ( 36, 36, 36)
     G cutoff =  321.8491  (   1497 G-vectors)  smooth grid: ( 25, 25, 25)
     number of k points=    60

     PseudoPot. # 1 for Si read from file:
     /home/s1333534/quantum_espresso/qe-6.1/pseudo/si_pbe_v1.uspp.F.UPF.txt
     MD5 check sum: a056efeee980c13900f22a371efd63c1
     Pseudo is Ultrasoft + core correction, Zval =  4.0
     Generated by new atomic code, or converted to UPF format
     Using radial grid of  899 points,  6 beta functions with: 
                l(1) =   0
                l(2) =   0
                l(3) =   1
                l(4) =   1
                l(5) =   2
                l(6) =   2
     Q(r) pseudized with  8 coefficients,  rinner =    0.900   0.900   0.900
                                                       0.900   0.900


     Atomic displacements:
     There are   4 irreducible representations

     Representation     1      1 modes -  To be done

     Representation     2      1 modes -  To be done

     Representation     3      2 modes -  To be done

     Representation     4      2 modes -  To be done



     Alpha used in Ewald sum =   2.5000
     PHONON       :    27.38s CPU        34.50s WALL



     Representation #  1 mode #   1

     Self-consistent Calculation

      iter #   1 total cpu time :    34.8 secs   av.it.:   5.1
      thresh= 1.000E-02 alpha_mix =  0.700 |ddv_scf|^2 =  4.232E-06

      iter #   2 total cpu time :    35.2 secs   av.it.:   9.9
      thresh= 2.057E-04 alpha_mix =  0.700 |ddv_scf|^2 =  3.843E-06

      iter #   3 total cpu time :    35.6 secs   av.it.:   9.2
      thresh= 1.960E-04 alpha_mix =  0.700 |ddv_scf|^2 =  2.340E-09

      iter #   4 total cpu time :    36.0 secs   av.it.:   9.4
      thresh= 4.838E-06 alpha_mix =  0.700 |ddv_scf|^2 =  2.250E-11

      iter #   5 total cpu time :    36.4 secs   av.it.:   9.3
      thresh= 4.743E-07 alpha_mix =  0.700 |ddv_scf|^2 =  3.051E-13

     End of self-consistent calculation

     Convergence has been achieved 


     Representation #  2 mode #   2

     Self-consistent Calculation

      iter #   1 total cpu time :    36.8 secs   av.it.:   6.0
      thresh= 1.000E-02 alpha_mix =  0.700 |ddv_scf|^2 =  6.023E-05

      iter #   2 total cpu time :    37.2 secs   av.it.:   9.8
      thresh= 7.761E-04 alpha_mix =  0.700 |ddv_scf|^2 =  1.869E-04

      iter #   3 total cpu time :    37.6 secs   av.it.:   8.6
      thresh= 1.367E-03 alpha_mix =  0.700 |ddv_scf|^2 =  1.275E-08

      iter #   4 total cpu time :    38.0 secs   av.it.:   9.8
      thresh= 1.129E-05 alpha_mix =  0.700 |ddv_scf|^2 =  6.446E-10

      iter #   5 total cpu time :    38.4 secs   av.it.:  10.2
      thresh= 2.539E-06 alpha_mix =  0.700 |ddv_scf|^2 =  1.989E-11

      iter #   6 total cpu time :    38.8 secs   av.it.:   9.7
      thresh= 4.460E-07 alpha_mix =  0.700 |ddv_scf|^2 =  1.510E-13

     End of self-consistent calculation

     Convergence has been achieved 


     Representation #  3 modes #   3  4

     Self-consistent Calculation

      iter #   1 total cpu time :    39.4 secs   av.it.:   5.1
      thresh= 1.000E-02 alpha_mix =  0.700 |ddv_scf|^2 =  2.707E-08

      iter #   2 total cpu time :    40.4 secs   av.it.:  10.9
      thresh= 1.645E-05 alpha_mix =  0.700 |ddv_scf|^2 =  1.601E-09

      iter #   3 total cpu time :    41.1 secs   av.it.:  10.7
      thresh= 4.001E-06 alpha_mix =  0.700 |ddv_scf|^2 =  5.305E-11

      iter #   4 total cpu time :    41.8 secs   av.it.:  10.6
      thresh= 7.283E-07 alpha_mix =  0.700 |ddv_scf|^2 =  4.351E-13

     End of self-consistent calculation

     Convergence has been achieved 


     Representation #  4 modes #   5  6

     Self-consistent Calculation

      iter #   1 total cpu time :    42.5 secs   av.it.:   5.1
      thresh= 1.000E-02 alpha_mix =  0.700 |ddv_scf|^2 =  1.383E-07

      iter #   2 total cpu time :    43.3 secs   av.it.:  11.1
      thresh= 3.719E-05 alpha_mix =  0.700 |ddv_scf|^2 =  1.109E-08

      iter #   3 total cpu time :    44.1 secs   av.it.:  10.9
      thresh= 1.053E-05 alpha_mix =  0.700 |ddv_scf|^2 =  2.921E-10

      iter #   4 total cpu time :    44.7 secs   av.it.:   9.9
      thresh= 1.709E-06 alpha_mix =  0.700 |ddv_scf|^2 =  5.199E-13

     End of self-consistent calculation

     Convergence has been achieved 

     Number of q in the star =    4
     List of q in the star:
          1   0.500000000  -0.500000000   0.500000000
          2   0.500000000   0.500000000   0.500000000
          3  -0.500000000   0.500000000   0.500000000
          4   0.500000000   0.500000000  -0.500000000

     Diagonalizing the dynamical matrix

     q = (    0.500000000  -0.500000000   0.500000000 ) 

 **************************************************************************
     freq (    1) =       3.234499 [THz] =     107.891267 [cm-1]
     freq (    2) =       3.234499 [THz] =     107.891267 [cm-1]
     freq (    3) =      11.147539 [THz] =     371.841873 [cm-1]
     freq (    4) =      12.213473 [THz] =     407.397595 [cm-1]
     freq (    5) =      14.504848 [THz] =     483.829657 [cm-1]
     freq (    6) =      14.504848 [THz] =     483.829657 [cm-1]
 **************************************************************************

     Calculation of q =    0.0000000   0.5000000   0.0000000

   Info: using nr1, nr2, nr3 values from input

   Info: using nr1, nr2, nr3 values from input

     Parallelization info
     --------------------
     sticks:   dense  smooth     PW     G-vecs:    dense   smooth      PW
     Min         217     108     37                 4240     1495     309
     Max         219     109     38                 4241     1498     312
     Sum         871     433    151                16961     5985    1243



     bravais-lattice index     =            2
     lattice parameter (alat)  =      10.2900  a.u.
     unit-cell volume          =     272.3868 (a.u.)^3
     number of atoms/cell      =            2
     number of atomic types    =            1
     number of electrons       =         8.00
     number of Kohn-Sham states=            4
     kinetic-energy cutoff     =      30.0000  Ry
     charge density cutoff     =     240.0000  Ry
     Exchange-correlation      = SLA  PW   PBE  PBE ( 1  4  3  4 0 0)

     celldm(1)=  10.290000  celldm(2)=   0.000000  celldm(3)=   0.000000
     celldm(4)=   0.000000  celldm(5)=   0.000000  celldm(6)=   0.000000

     crystal axes: (cart. coord. in units of alat)
               a(1) = (  -0.500000   0.000000   0.500000 )  
               a(2) = (   0.000000   0.500000   0.500000 )  
               a(3) = (  -0.500000   0.500000   0.000000 )  

     reciprocal axes: (cart. coord. in units 2 pi/alat)
               b(1) = ( -1.000000 -1.000000  1.000000 )  
               b(2) = (  1.000000  1.000000  1.000000 )  
               b(3) = ( -1.000000  1.000000 -1.000000 )  


     PseudoPot. # 1 for Si read from file:
     /home/s1333534/quantum_espresso/qe-6.1/pseudo/si_pbe_v1.uspp.F.UPF.txt
     MD5 check sum: a056efeee980c13900f22a371efd63c1
     Pseudo is Ultrasoft + core correction, Zval =  4.0
     Generated by new atomic code, or converted to UPF format
     Using radial grid of  899 points,  6 beta functions with: 
                l(1) =   0
                l(2) =   0
                l(3) =   1
                l(4) =   1
                l(5) =   2
                l(6) =   2
     Q(r) pseudized with  8 coefficients,  rinner =    0.900   0.900   0.900
                                                       0.900   0.900

     atomic species   valence    mass     pseudopotential
        Si             4.00    28.08600     Si( 1.00)

     48 Sym. Ops., with inversion, found



   Cartesian axes

     site n.     atom                  positions (alat units)
         1           Si  tau(   1) = (   0.0000000   0.0000000   0.0000000  )
         2           Si  tau(   2) = (   0.2500000   0.2500000   0.2500000  )

     number of k points=    80
                       cart. coord. in units 2pi/alat
        k(    1) = (  -0.1250000   0.1250000   0.1250000), wk =   0.0312500
        k(    2) = (  -0.1250000   0.6250000   0.1250000), wk =   0.0000000
        k(    3) = (  -0.3750000   0.3750000  -0.1250000), wk =   0.0625000
        k(    4) = (  -0.3750000   0.8750000  -0.1250000), wk =   0.0000000
        k(    5) = (   0.3750000  -0.3750000   0.6250000), wk =   0.0625000
        k(    6) = (   0.3750000   0.1250000   0.6250000), wk =   0.0000000
        k(    7) = (   0.1250000  -0.1250000   0.3750000), wk =   0.0625000
        k(    8) = (   0.1250000   0.3750000   0.3750000), wk =   0.0000000
        k(    9) = (  -0.1250000   0.6250000   0.1250000), wk =   0.0312500
        k(   10) = (  -0.1250000   1.1250000   0.1250000), wk =   0.0000000
        k(   11) = (   0.6250000  -0.1250000   0.8750000), wk =   0.0625000
        k(   12) = (   0.6250000   0.3750000   0.8750000), wk =   0.0000000
        k(   13) = (   0.3750000   0.1250000   0.6250000), wk =   0.0625000
        k(   14) = (   0.3750000   0.6250000   0.6250000), wk =   0.0000000
        k(   15) = (  -0.1250000  -0.8750000   0.1250000), wk =   0.0312500
        k(   16) = (  -0.1250000  -0.3750000   0.1250000), wk =   0.0000000
        k(   17) = (  -0.3750000   0.3750000   0.3750000), wk =   0.0312500
        k(   18) = (  -0.3750000   0.8750000   0.3750000), wk =   0.0000000
        k(   19) = (   0.3750000  -0.3750000   1.1250000), wk =   0.0625000
        k(   20) = (   0.3750000   0.1250000   1.1250000), wk =   0.0000000
        k(   21) = (  -0.1250000  -0.1250000   0.1250000), wk =   0.0312500
        k(   22) = (  -0.1250000   0.3750000   0.1250000), wk =   0.0000000
        k(   23) = (   0.1250000  -0.3750000   0.3750000), wk =   0.0625000
        k(   24) = (   0.1250000   0.1250000   0.3750000), wk =   0.0000000
        k(   25) = (   0.3750000  -0.1250000   0.3750000), wk =   0.0312500
        k(   26) = (   0.3750000   0.3750000   0.3750000), wk =   0.0000000
        k(   27) = (   0.3750000   0.1250000   0.3750000), wk =   0.0312500
        k(   28) = (   0.3750000   0.6250000   0.3750000), wk =   0.0000000
        k(   29) = (  -0.6250000   0.3750000  -0.3750000), wk =   0.0625000
        k(   30) = (  -0.6250000   0.8750000  -0.3750000), wk =   0.0000000
        k(   31) = (  -0.3750000   0.6250000  -0.3750000), wk =   0.0312500
        k(   32) = (  -0.3750000   1.1250000  -0.3750000), wk =   0.0000000
        k(   33) = (  -0.3750000  -0.6250000  -0.3750000), wk =   0.0312500
        k(   34) = (  -0.3750000  -0.1250000  -0.3750000), wk =   0.0000000
        k(   35) = (  -0.3750000   0.1250000  -0.1250000), wk =   0.0625000
        k(   36) = (  -0.3750000   0.6250000  -0.1250000), wk =   0.0000000
        k(   37) = (  -0.1250000   0.3750000  -0.1250000), wk =   0.0312500
        k(   38) = (  -0.1250000   0.8750000  -0.1250000), wk =   0.0000000
        k(   39) = (  -0.1250000  -0.3750000  -0.1250000), wk =   0.0312500
        k(   40) = (  -0.1250000   0.1250000  -0.1250000), wk =   0.0000000
        k(   41) = (  -0.1250000  -0.6250000   0.1250000), wk =   0.0312500
        k(   42) = (  -0.1250000  -0.1250000   0.1250000), wk =   0.0000000
        k(   43) = (   0.6250000  -0.1250000  -0.1250000), wk =   0.0625000
        k(   44) = (   0.6250000   0.3750000  -0.1250000), wk =   0.0000000
        k(   45) = (   0.6250000   0.1250000   0.1250000), wk =   0.0625000
        k(   46) = (   0.6250000   0.6250000   0.1250000), wk =   0.0000000
        k(   47) = (  -0.8750000   0.1250000  -0.6250000), wk =   0.0625000
        k(   48) = (  -0.8750000   0.6250000  -0.6250000), wk =   0.0000000
        k(   49) = (  -0.1250000   0.6250000  -0.8750000), wk =   0.0625000
        k(   50) = (  -0.1250000   1.1250000  -0.8750000), wk =   0.0000000
        k(   51) = (  -0.1250000   0.8750000  -0.6250000), wk =   0.0625000
        k(   52) = (  -0.1250000   1.3750000  -0.6250000), wk =   0.0000000
        k(   53) = (  -0.1250000  -0.8750000  -0.6250000), wk =   0.0625000
        k(   54) = (  -0.1250000  -0.3750000  -0.6250000), wk =   0.0000000
        k(   55) = (   0.8750000  -0.6250000   0.1250000), wk =   0.0625000
        k(   56) = (   0.8750000  -0.1250000   0.1250000), wk =   0.0000000
        k(   57) = (  -0.6250000  -0.1250000  -0.3750000), wk =   0.0625000
        k(   58) = (  -0.6250000   0.3750000  -0.3750000), wk =   0.0000000
        k(   59) = (   0.1250000   0.3750000  -0.6250000), wk =   0.0625000
        k(   60) = (   0.1250000   0.8750000  -0.6250000), wk =   0.0000000
        k(   61) = (   0.1250000   0.6250000  -0.3750000), wk =   0.0625000
        k(   62) = (   0.1250000   1.1250000  -0.3750000), wk =   0.0000000
        k(   63) = (   0.1250000  -0.6250000  -0.3750000), wk =   0.0625000
        k(   64) = (   0.1250000  -0.1250000  -0.3750000), wk =   0.0000000
        k(   65) = (   0.6250000  -0.3750000  -0.1250000), wk =   0.0625000
        k(   66) = (   0.6250000   0.1250000  -0.1250000), wk =   0.0000000
        k(   67) = (  -0.1250000   0.8750000   0.1250000), wk =   0.0312500
        k(   68) = (  -0.1250000   1.3750000   0.1250000), wk =   0.0000000
        k(   69) = (  -0.8750000  -0.1250000  -0.1250000), wk =   0.0625000
        k(   70) = (  -0.8750000   0.3750000  -0.1250000), wk =   0.0000000
        k(   71) = (  -0.8750000   0.1250000   0.1250000), wk =   0.0625000
        k(   72) = (  -0.8750000   0.6250000   0.1250000), wk =   0.0000000
        k(   73) = (  -0.3750000  -0.3750000   0.3750000), wk =   0.0312500
        k(   74) = (  -0.3750000   0.1250000   0.3750000), wk =   0.0000000
        k(   75) = (  -1.1250000   0.3750000  -0.3750000), wk =   0.0625000
        k(   76) = (  -1.1250000   0.8750000  -0.3750000), wk =   0.0000000
        k(   77) = (  -0.3750000   1.1250000  -0.3750000), wk =   0.0312500
        k(   78) = (  -0.3750000   1.6250000  -0.3750000), wk =   0.0000000
        k(   79) = (  -0.3750000  -1.1250000  -0.3750000), wk =   0.0312500
        k(   80) = (  -0.3750000  -0.6250000  -0.3750000), wk =   0.0000000

     Dense  grid:    16961 G-vectors     FFT dimensions: (  36,  36,  36)

     Smooth grid:     5985 G-vectors     FFT dimensions: (  25,  25,  25)

     Estimated max dynamical RAM per process >       1.51MB

     Estimated total allocated dynamical RAM >       6.03MB

     The potential is recalculated from file :
     ./_ph0/silicon.10.290.save/charge-density.dat

     Starting wfc are    8 atomic wfcs

     Band Structure Calculation
     Davidson diagonalization with overlap

     ethr =  1.25E-10,  avg # of iterations = 12.2

     total cpu time spent up to now is        3.5 secs

     End of band structure calculation

          k =-0.1250 0.1250 0.1250 (   746 PWs)   bands (ev):

    -5.5913   4.5141   5.8232   5.8232

          k =-0.1250 0.6250 0.1250 (   760 PWs)   bands (ev):

    -4.0153   1.1782   3.4613   3.9194

          k =-0.3750 0.3750-0.1250 (   757 PWs)   bands (ev):

    -4.5533   1.5013   3.8165   5.3400

          k =-0.3750 0.8750-0.1250 (   751 PWs)   bands (ev):

    -2.3543  -0.8011   2.0865   3.1769

          k = 0.3750-0.3750 0.6250 (   759 PWs)   bands (ev):

    -3.3971  -0.6030   3.8432   4.5587

          k = 0.3750 0.1250 0.6250 (   756 PWs)   bands (ev):

    -3.5938   0.2889   2.8146   4.1967

          k = 0.1250-0.1250 0.3750 (   765 PWs)   bands (ev):

    -5.0578   2.8925   4.8026   4.8738

          k = 0.1250 0.3750 0.3750 (   757 PWs)   bands (ev):

    -4.5533   1.5013   3.8165   5.3400

          k =-0.1250 0.6250 0.1250 (   760 PWs)   bands (ev):

    -4.0153   1.1782   3.4613   3.9194

          k =-0.1250 1.1250 0.1250 (   757 PWs)   bands (ev):

    -2.5269  -0.7011   2.7049   3.4480

          k = 0.6250-0.1250 0.8750 (   751 PWs)   bands (ev):

    -2.3543  -0.8011   2.0865   3.1769

          k = 0.6250 0.3750 0.8750 (   756 PWs)   bands (ev):

    -3.5938   0.2889   2.8146   4.1967

          k = 0.3750 0.1250 0.6250 (   756 PWs)   bands (ev):

    -3.5938   0.2889   2.8146   4.1967

          k = 0.3750 0.6250 0.6250 (   759 PWs)   bands (ev):

    -3.3971  -0.6030   3.8432   4.5587

          k =-0.1250-0.8750 0.1250 (   757 PWs)   bands (ev):

    -2.5269  -0.7011   2.7049   3.4480

          k =-0.1250-0.3750 0.1250 (   765 PWs)   bands (ev):

    -5.0578   2.8925   4.8026   4.8738

          k =-0.3750 0.3750 0.3750 (   763 PWs)   bands (ev):

    -4.1143   0.1927   5.0295   5.0295

          k =-0.3750 0.8750 0.3750 (   757 PWs)   bands (ev):

    -2.8964  -0.5052   2.1502   4.2376

          k = 0.3750-0.3750 1.1250 (   757 PWs)   bands (ev):

    -2.8964  -0.5052   2.1502   4.2376

          k = 0.3750 0.1250 1.1250 (   751 PWs)   bands (ev):

    -2.3543  -0.8011   2.0865   3.1769

          k =-0.1250-0.1250 0.1250 (   746 PWs)   bands (ev):

    -5.5913   4.5141   5.8232   5.8232

          k =-0.1250 0.3750 0.1250 (   765 PWs)   bands (ev):

    -5.0578   2.8925   4.8026   4.8738

          k = 0.1250-0.3750 0.3750 (   757 PWs)   bands (ev):

    -4.5533   1.5013   3.8165   5.3400

          k = 0.1250 0.1250 0.3750 (   765 PWs)   bands (ev):

    -5.0578   2.8925   4.8026   4.8738

          k = 0.3750-0.1250 0.3750 (   757 PWs)   bands (ev):

    -4.5533   1.5013   3.8165   5.3400

          k = 0.3750 0.3750 0.3750 (   763 PWs)   bands (ev):

    -4.1143   0.1927   5.0295   5.0295

          k = 0.3750 0.1250 0.3750 (   757 PWs)   bands (ev):

    -4.5533   1.5013   3.8165   5.3400

          k = 0.3750 0.6250 0.3750 (   759 PWs)   bands (ev):

    -3.3971  -0.6030   3.8432   4.5587

          k =-0.6250 0.3750-0.3750 (   759 PWs)   bands (ev):

    -3.3971  -0.6030   3.8432   4.5587

          k =-0.6250 0.8750-0.3750 (   756 PWs)   bands (ev):

    -3.5938   0.2889   2.8146   4.1967

          k =-0.3750 0.6250-0.3750 (   759 PWs)   bands (ev):

    -3.3971  -0.6030   3.8432   4.5587

          k =-0.3750 1.1250-0.3750 (   757 PWs)   bands (ev):

    -2.8964  -0.5052   2.1502   4.2376

          k =-0.3750-0.6250-0.3750 (   759 PWs)   bands (ev):

    -3.3971  -0.6030   3.8432   4.5587

          k =-0.3750-0.1250-0.3750 (   757 PWs)   bands (ev):

    -4.5533   1.5013   3.8165   5.3400

          k =-0.3750 0.1250-0.1250 (   765 PWs)   bands (ev):

    -5.0578   2.8925   4.8026   4.8738

          k =-0.3750 0.6250-0.1250 (   756 PWs)   bands (ev):

    -3.5938   0.2889   2.8146   4.1967

          k =-0.1250 0.3750-0.1250 (   765 PWs)   bands (ev):

    -5.0578   2.8925   4.8026   4.8738

          k =-0.1250 0.8750-0.1250 (   757 PWs)   bands (ev):

    -2.5269  -0.7011   2.7049   3.4480

          k =-0.1250-0.3750-0.1250 (   765 PWs)   bands (ev):

    -5.0578   2.8925   4.8026   4.8738

          k =-0.1250 0.1250-0.1250 (   746 PWs)   bands (ev):

    -5.5913   4.5141   5.8232   5.8232

          k =-0.1250-0.6250 0.1250 (   760 PWs)   bands (ev):

    -4.0153   1.1782   3.4613   3.9194

          k =-0.1250-0.1250 0.1250 (   746 PWs)   bands (ev):

    -5.5913   4.5141   5.8232   5.8232

          k = 0.6250-0.1250-0.1250 (   760 PWs)   bands (ev):

    -4.0153   1.1782   3.4613   3.9194

          k = 0.6250 0.3750-0.1250 (   756 PWs)   bands (ev):

    -3.5938   0.2889   2.8146   4.1967

          k = 0.6250 0.1250 0.1250 (   760 PWs)   bands (ev):

    -4.0153   1.1782   3.4613   3.9194

          k = 0.6250 0.6250 0.1250 (   757 PWs)   bands (ev):

    -2.8964  -0.5052   2.1502   4.2376

          k =-0.8750 0.1250-0.6250 (   751 PWs)   bands (ev):

    -2.3543  -0.8011   2.0865   3.1769

          k =-0.8750 0.6250-0.6250 (   757 PWs)   bands (ev):

    -4.5533   1.5013   3.8165   5.3400

          k =-0.1250 0.6250-0.8750 (   751 PWs)   bands (ev):

    -2.3543  -0.8011   2.0865   3.1769

          k =-0.1250 1.1250-0.8750 (   757 PWs)   bands (ev):

    -2.5269  -0.7011   2.7049   3.4480

          k =-0.1250 0.8750-0.6250 (   751 PWs)   bands (ev):

    -2.3543  -0.8011   2.0865   3.1769

          k =-0.1250 1.3750-0.6250 (   757 PWs)   bands (ev):

    -2.8964  -0.5052   2.1502   4.2376

          k =-0.1250-0.8750-0.6250 (   751 PWs)   bands (ev):

    -2.3543  -0.8011   2.0865   3.1769

          k =-0.1250-0.3750-0.6250 (   756 PWs)   bands (ev):

    -3.5938   0.2889   2.8146   4.1967

          k = 0.8750-0.6250 0.1250 (   751 PWs)   bands (ev):

    -2.3543  -0.8011   2.0865   3.1769

          k = 0.8750-0.1250 0.1250 (   757 PWs)   bands (ev):

    -2.5269  -0.7011   2.7049   3.4480

          k =-0.6250-0.1250-0.3750 (   756 PWs)   bands (ev):

    -3.5938   0.2889   2.8146   4.1967

          k =-0.6250 0.3750-0.3750 (   759 PWs)   bands (ev):

    -3.3971  -0.6030   3.8432   4.5587

          k = 0.1250 0.3750-0.6250 (   756 PWs)   bands (ev):

    -3.5938   0.2889   2.8146   4.1967

          k = 0.1250 0.8750-0.6250 (   751 PWs)   bands (ev):

    -2.3543  -0.8011   2.0865   3.1769

          k = 0.1250 0.6250-0.3750 (   756 PWs)   bands (ev):

    -3.5938   0.2889   2.8146   4.1967

          k = 0.1250 1.1250-0.3750 (   751 PWs)   bands (ev):

    -2.3543  -0.8011   2.0865   3.1769

          k = 0.1250-0.6250-0.3750 (   756 PWs)   bands (ev):

    -3.5938   0.2889   2.8146   4.1967

          k = 0.1250-0.1250-0.3750 (   765 PWs)   bands (ev):

    -5.0578   2.8925   4.8026   4.8738

          k = 0.6250-0.3750-0.1250 (   756 PWs)   bands (ev):

    -3.5938   0.2889   2.8146   4.1967

          k = 0.6250 0.1250-0.1250 (   760 PWs)   bands (ev):

    -4.0153   1.1782   3.4613   3.9194

          k =-0.1250 0.8750 0.1250 (   757 PWs)   bands (ev):

    -2.5269  -0.7011   2.7049   3.4480

          k =-0.1250 1.3750 0.1250 (   760 PWs)   bands (ev):

    -4.0153   1.1782   3.4613   3.9194

          k =-0.8750-0.1250-0.1250 (   757 PWs)   bands (ev):

    -2.5269  -0.7011   2.7049   3.4480

          k =-0.8750 0.3750-0.1250 (   751 PWs)   bands (ev):

    -2.3543  -0.8011   2.0865   3.1769

          k =-0.8750 0.1250 0.1250 (   757 PWs)   bands (ev):

    -2.5269  -0.7011   2.7049   3.4480

          k =-0.8750 0.6250 0.1250 (   751 PWs)   bands (ev):

    -2.3543  -0.8011   2.0865   3.1769

          k =-0.3750-0.3750 0.3750 (   763 PWs)   bands (ev):

    -4.1143   0.1927   5.0295   5.0295

          k =-0.3750 0.1250 0.3750 (   757 PWs)   bands (ev):

    -4.5533   1.5013   3.8165   5.3400

          k =-1.1250 0.3750-0.3750 (   757 PWs)   bands (ev):

    -2.8964  -0.5052   2.1502   4.2376

          k =-1.1250 0.8750-0.3750 (   760 PWs)   bands (ev):

    -4.0153   1.1782   3.4613   3.9194

          k =-0.3750 1.1250-0.3750 (   757 PWs)   bands (ev):

    -2.8964  -0.5052   2.1502   4.2376

          k =-0.3750 1.6250-0.3750 (   763 PWs)   bands (ev):

    -4.1143   0.1927   5.0295   5.0295

          k =-0.3750-1.1250-0.3750 (   757 PWs)   bands (ev):

    -2.8964  -0.5052   2.1502   4.2376

          k =-0.3750-0.6250-0.3750 (   759 PWs)   bands (ev):

    -3.3971  -0.6030   3.8432   4.5587

     highest occupied level (ev):     5.8232

     Writing output data file silicon.10.290.save

                                                                                

     bravais-lattice index     =            2
     lattice parameter (alat)  =      10.2900  a.u.
     unit-cell volume          =     272.3868 (a.u.)^3
     number of atoms/cell      =            2
     number of atomic types    =            1
     kinetic-energy cut-off    =      30.0000  Ry
     charge density cut-off    =     240.0000  Ry
     convergence threshold     =      1.0E-12
     beta                      =       0.7000
     number of iterations used =            4
     Exchange-correlation      = SLA  PW   PBE  PBE ( 1  4  3  4 0 0)


     celldm(1)=   10.29000  celldm(2)=    0.00000  celldm(3)=    0.00000
     celldm(4)=    0.00000  celldm(5)=    0.00000  celldm(6)=    0.00000

     crystal axes: (cart. coord. in units of alat)
               a(1) = ( -0.5000  0.0000  0.5000 )  
               a(2) = (  0.0000  0.5000  0.5000 )  
               a(3) = ( -0.5000  0.5000  0.0000 )  

     reciprocal axes: (cart. coord. in units 2 pi/alat)
               b(1) = ( -1.0000 -1.0000  1.0000 )  
               b(2) = (  1.0000  1.0000  1.0000 )  
               b(3) = ( -1.0000  1.0000 -1.0000 )  


     Atoms inside the unit cell: 

     Cartesian axes

     site n.  atom      mass           positions (alat units)
        1     Si  28.0860   tau(    1) = (    0.00000    0.00000    0.00000  )
        2     Si  28.0860   tau(    2) = (    0.25000    0.25000    0.25000  )

     Computing dynamical matrix for 
                    q = (   0.0000000   0.5000000   0.0000000 )

      8 Sym.Ops. (no q -> -q+G )


     G cutoff =  643.6981  (   4241 G-vectors)     FFT grid: ( 36, 36, 36)
     G cutoff =  321.8491  (   1496 G-vectors)  smooth grid: ( 25, 25, 25)
     number of k points=    80

     PseudoPot. # 1 for Si read from file:
     /home/s1333534/quantum_espresso/qe-6.1/pseudo/si_pbe_v1.uspp.F.UPF.txt
     MD5 check sum: a056efeee980c13900f22a371efd63c1
     Pseudo is Ultrasoft + core correction, Zval =  4.0
     Generated by new atomic code, or converted to UPF format
     Using radial grid of  899 points,  6 beta functions with: 
                l(1) =   0
                l(2) =   0
                l(3) =   1
                l(4) =   1
                l(5) =   2
                l(6) =   2
     Q(r) pseudized with  8 coefficients,  rinner =    0.900   0.900   0.900
                                                       0.900   0.900

     Mode symmetry, C_4v (4mm)  point group:


     Atomic displacements:
     There are   4 irreducible representations

     Representation     1      1 modes -A_1  G_1 D_1  To be done

     Representation     2      1 modes -B_2  G_4 D_2'  To be done

     Representation     3      2 modes -E    G_5 D_5  To be done

     Representation     4      2 modes -E    G_5 D_5  To be done



     Alpha used in Ewald sum =   2.5000
     PHONON       :    37.04s CPU        47.35s WALL



     Representation #  1 mode #   1

     Self-consistent Calculation

      iter #   1 total cpu time :    47.7 secs   av.it.:   6.2
      thresh= 1.000E-02 alpha_mix =  0.700 |ddv_scf|^2 =  5.187E-04

      iter #   2 total cpu time :    48.2 secs   av.it.:   9.2
      thresh= 2.278E-03 alpha_mix =  0.700 |ddv_scf|^2 =  6.846E-03

      iter #   3 total cpu time :    48.6 secs   av.it.:   7.3
      thresh= 8.274E-03 alpha_mix =  0.700 |ddv_scf|^2 =  1.051E-08

      iter #   4 total cpu time :    49.0 secs   av.it.:  10.1
      thresh= 1.025E-05 alpha_mix =  0.700 |ddv_scf|^2 =  9.787E-10

      iter #   5 total cpu time :    49.5 secs   av.it.:   9.6
      thresh= 3.128E-06 alpha_mix =  0.700 |ddv_scf|^2 =  1.169E-10

      iter #   6 total cpu time :    49.9 secs   av.it.:   9.3
      thresh= 1.081E-06 alpha_mix =  0.700 |ddv_scf|^2 =  3.515E-13

     End of self-consistent calculation

     Convergence has been achieved 


     Representation #  2 mode #   2

     Self-consistent Calculation

      iter #   1 total cpu time :    50.3 secs   av.it.:   5.1
      thresh= 1.000E-02 alpha_mix =  0.700 |ddv_scf|^2 =  8.145E-07

      iter #   2 total cpu time :    50.8 secs   av.it.:  10.4
      thresh= 9.025E-05 alpha_mix =  0.700 |ddv_scf|^2 =  2.188E-07

      iter #   3 total cpu time :    51.3 secs   av.it.:   9.9
      thresh= 4.678E-05 alpha_mix =  0.700 |ddv_scf|^2 =  2.216E-09

      iter #   4 total cpu time :    51.8 secs   av.it.:  10.1
      thresh= 4.707E-06 alpha_mix =  0.700 |ddv_scf|^2 =  8.453E-11

      iter #   5 total cpu time :    52.3 secs   av.it.:  10.3
      thresh= 9.194E-07 alpha_mix =  0.700 |ddv_scf|^2 =  5.152E-13

     End of self-consistent calculation

     Convergence has been achieved 


     Representation #  3 modes #   3  4

     Self-consistent Calculation

      iter #   1 total cpu time :    53.0 secs   av.it.:   5.2
      thresh= 1.000E-02 alpha_mix =  0.700 |ddv_scf|^2 =  1.446E-07

      iter #   2 total cpu time :    53.9 secs   av.it.:  11.5
      thresh= 3.802E-05 alpha_mix =  0.700 |ddv_scf|^2 =  1.991E-08

      iter #   3 total cpu time :    54.8 secs   av.it.:  11.1
      thresh= 1.411E-05 alpha_mix =  0.700 |ddv_scf|^2 =  3.354E-10

      iter #   4 total cpu time :    55.6 secs   av.it.:  10.8
      thresh= 1.831E-06 alpha_mix =  0.700 |ddv_scf|^2 =  7.776E-13

     End of self-consistent calculation

     Convergence has been achieved 


     Representation #  4 modes #   5  6

     Self-consistent Calculation

      iter #   1 total cpu time :    56.4 secs   av.it.:   5.3
      thresh= 1.000E-02 alpha_mix =  0.700 |ddv_scf|^2 =  1.326E-07

      iter #   2 total cpu time :    57.3 secs   av.it.:  11.4
      thresh= 3.641E-05 alpha_mix =  0.700 |ddv_scf|^2 =  1.776E-08

      iter #   3 total cpu time :    58.2 secs   av.it.:  11.2
      thresh= 1.333E-05 alpha_mix =  0.700 |ddv_scf|^2 =  3.438E-10

      iter #   4 total cpu time :    59.0 secs   av.it.:  11.0
      thresh= 1.854E-06 alpha_mix =  0.700 |ddv_scf|^2 =  8.392E-13

     End of self-consistent calculation

     Convergence has been achieved 

     Number of q in the star =    6
     List of q in the star:
          1   0.000000000   0.500000000   0.000000000
          2   0.000000000  -0.500000000   0.000000000
          3   0.500000000   0.000000000   0.000000000
          4   0.000000000   0.000000000   0.500000000
          5   0.000000000   0.000000000  -0.500000000
          6  -0.500000000   0.000000000   0.000000000

     Diagonalizing the dynamical matrix

     q = (    0.000000000   0.500000000   0.000000000 ) 

 **************************************************************************
     freq (    1) =       3.740350 [THz] =     124.764650 [cm-1]
     freq (    2) =       3.740350 [THz] =     124.764650 [cm-1]
     freq (    3) =       7.154926 [THz] =     238.662629 [cm-1]
     freq (    4) =      14.045124 [THz] =     468.494906 [cm-1]
     freq (    5) =      14.045124 [THz] =     468.494906 [cm-1]
     freq (    6) =      14.636262 [THz] =     488.213134 [cm-1]
 **************************************************************************

     Mode symmetry, C_4v (4mm)  point group:

     freq (  1 -  2) =        124.8  [cm-1]   --> E    G_5 D_5       
     freq (  3 -  3) =        238.7  [cm-1]   --> A_1  G_1 D_1       
     freq (  4 -  5) =        468.5  [cm-1]   --> E    G_5 D_5       
     freq (  6 -  6) =        488.2  [cm-1]   --> B_2  G_4 D_2'      

     Calculation of q =    0.7500000  -0.2500000   0.7500000

   Info: using nr1, nr2, nr3 values from input

   Info: using nr1, nr2, nr3 values from input

     Parallelization info
     --------------------
     sticks:   dense  smooth     PW     G-vecs:    dense   smooth      PW
     Min         217     108     40                 4240     1495     362
     Max         219     109     41                 4241     1498     366
     Sum         871     433    163                16961     5985    1459



     bravais-lattice index     =            2
     lattice parameter (alat)  =      10.2900  a.u.
     unit-cell volume          =     272.3868 (a.u.)^3
     number of atoms/cell      =            2
     number of atomic types    =            1
     number of electrons       =         8.00
     number of Kohn-Sham states=            4
     kinetic-energy cutoff     =      30.0000  Ry
     charge density cutoff     =     240.0000  Ry
     Exchange-correlation      = SLA  PW   PBE  PBE ( 1  4  3  4 0 0)

     celldm(1)=  10.290000  celldm(2)=   0.000000  celldm(3)=   0.000000
     celldm(4)=   0.000000  celldm(5)=   0.000000  celldm(6)=   0.000000

     crystal axes: (cart. coord. in units of alat)
               a(1) = (  -0.500000   0.000000   0.500000 )  
               a(2) = (   0.000000   0.500000   0.500000 )  
               a(3) = (  -0.500000   0.500000   0.000000 )  

     reciprocal axes: (cart. coord. in units 2 pi/alat)
               b(1) = ( -1.000000 -1.000000  1.000000 )  
               b(2) = (  1.000000  1.000000  1.000000 )  
               b(3) = ( -1.000000  1.000000 -1.000000 )  


     PseudoPot. # 1 for Si read from file:
     /home/s1333534/quantum_espresso/qe-6.1/pseudo/si_pbe_v1.uspp.F.UPF.txt
     MD5 check sum: a056efeee980c13900f22a371efd63c1
     Pseudo is Ultrasoft + core correction, Zval =  4.0
     Generated by new atomic code, or converted to UPF format
     Using radial grid of  899 points,  6 beta functions with: 
                l(1) =   0
                l(2) =   0
                l(3) =   1
                l(4) =   1
                l(5) =   2
                l(6) =   2
     Q(r) pseudized with  8 coefficients,  rinner =    0.900   0.900   0.900
                                                       0.900   0.900

     atomic species   valence    mass     pseudopotential
        Si             4.00    28.08600     Si( 1.00)

     48 Sym. Ops., with inversion, found



   Cartesian axes

     site n.     atom                  positions (alat units)
         1           Si  tau(   1) = (   0.0000000   0.0000000   0.0000000  )
         2           Si  tau(   2) = (   0.2500000   0.2500000   0.2500000  )

     number of k points=   288

     Number of k-points >= 100: set verbosity='high' to print them.

     Dense  grid:    16961 G-vectors     FFT dimensions: (  36,  36,  36)

     Smooth grid:     5985 G-vectors     FFT dimensions: (  25,  25,  25)

     Estimated max dynamical RAM per process >       1.51MB

     Estimated total allocated dynamical RAM >       6.03MB

     The potential is recalculated from file :
     ./_ph0/silicon.10.290.save/charge-density.dat

     Starting wfc are    8 atomic wfcs

     Band Structure Calculation
     Davidson diagonalization with overlap

     ethr =  1.25E-10,  avg # of iterations = 12.1

     total cpu time spent up to now is        6.7 secs

     End of band structure calculation

     Number of k-points >= 100: set verbosity='high' to print the bands.

     highest occupied level (ev):     5.8232

     Writing output data file silicon.10.290.save

                                                                                

     bravais-lattice index     =            2
     lattice parameter (alat)  =      10.2900  a.u.
     unit-cell volume          =     272.3868 (a.u.)^3
     number of atoms/cell      =            2
     number of atomic types    =            1
     kinetic-energy cut-off    =      30.0000  Ry
     charge density cut-off    =     240.0000  Ry
     convergence threshold     =      1.0E-12
     beta                      =       0.7000
     number of iterations used =            4
     Exchange-correlation      = SLA  PW   PBE  PBE ( 1  4  3  4 0 0)


     celldm(1)=   10.29000  celldm(2)=    0.00000  celldm(3)=    0.00000
     celldm(4)=    0.00000  celldm(5)=    0.00000  celldm(6)=    0.00000

     crystal axes: (cart. coord. in units of alat)
               a(1) = ( -0.5000  0.0000  0.5000 )  
               a(2) = (  0.0000  0.5000  0.5000 )  
               a(3) = ( -0.5000  0.5000  0.0000 )  

     reciprocal axes: (cart. coord. in units 2 pi/alat)
               b(1) = ( -1.0000 -1.0000  1.0000 )  
               b(2) = (  1.0000  1.0000  1.0000 )  
               b(3) = ( -1.0000  1.0000 -1.0000 )  


     Atoms inside the unit cell: 

     Cartesian axes

     site n.  atom      mass           positions (alat units)
        1     Si  28.0860   tau(    1) = (    0.00000    0.00000    0.00000  )
        2     Si  28.0860   tau(    2) = (    0.25000    0.25000    0.25000  )

     Computing dynamical matrix for 
                    q = (   0.7500000  -0.2500000   0.7500000 )

      2 Sym.Ops. (no q -> -q+G )


     G cutoff =  643.6981  (   4241 G-vectors)     FFT grid: ( 36, 36, 36)
     G cutoff =  321.8491  (   1497 G-vectors)  smooth grid: ( 25, 25, 25)
     number of k points=   288

     PseudoPot. # 1 for Si read from file:
     /home/s1333534/quantum_espresso/qe-6.1/pseudo/si_pbe_v1.uspp.F.UPF.txt
     MD5 check sum: a056efeee980c13900f22a371efd63c1
     Pseudo is Ultrasoft + core correction, Zval =  4.0
     Generated by new atomic code, or converted to UPF format
     Using radial grid of  899 points,  6 beta functions with: 
                l(1) =   0
                l(2) =   0
                l(3) =   1
                l(4) =   1
                l(5) =   2
                l(6) =   2
     Q(r) pseudized with  8 coefficients,  rinner =    0.900   0.900   0.900
                                                       0.900   0.900

     Mode symmetry, C_s (m)     point group:


     Atomic displacements:
     There are   6 irreducible representations

     Representation     1      1 modes -A'  To be done

     Representation     2      1 modes -A'  To be done

     Representation     3      1 modes -A'  To be done

     Representation     4      1 modes -A'  To be done

     Representation     5      1 modes -A''  To be done

     Representation     6      1 modes -A''  To be done



     Alpha used in Ewald sum =   2.5000
     PHONON       :  0m51.03s CPU     1m 4.57s WALL



     Representation #  1 mode #   1

     Self-consistent Calculation

      iter #   1 total cpu time :    65.4 secs   av.it.:   5.7
      thresh= 1.000E-02 alpha_mix =  0.700 |ddv_scf|^2 =  1.057E-05

      iter #   2 total cpu time :    66.8 secs   av.it.:  10.6
      thresh= 3.251E-04 alpha_mix =  0.700 |ddv_scf|^2 =  2.804E-05

      iter #   3 total cpu time :    68.0 secs   av.it.:   9.2
      thresh= 5.295E-04 alpha_mix =  0.700 |ddv_scf|^2 =  1.885E-07

      iter #   4 total cpu time :    69.3 secs   av.it.:   9.9
      thresh= 4.341E-05 alpha_mix =  0.700 |ddv_scf|^2 =  3.679E-09

      iter #   5 total cpu time :    70.6 secs   av.it.:  10.4
      thresh= 6.066E-06 alpha_mix =  0.700 |ddv_scf|^2 =  6.394E-10

      iter #   6 total cpu time :    71.8 secs   av.it.:  10.3
      thresh= 2.529E-06 alpha_mix =  0.700 |ddv_scf|^2 =  9.284E-12

      iter #   7 total cpu time :    73.1 secs   av.it.:  10.6
      thresh= 3.047E-07 alpha_mix =  0.700 |ddv_scf|^2 =  3.434E-13

     End of self-consistent calculation

     Convergence has been achieved 


     Representation #  2 mode #   2

     Self-consistent Calculation

      iter #   1 total cpu time :    74.2 secs   av.it.:   5.8
      thresh= 1.000E-02 alpha_mix =  0.700 |ddv_scf|^2 =  1.896E-05

      iter #   2 total cpu time :    75.5 secs   av.it.:  10.4
      thresh= 4.354E-04 alpha_mix =  0.700 |ddv_scf|^2 =  5.472E-05

      iter #   3 total cpu time :    76.7 secs   av.it.:   9.0
      thresh= 7.397E-04 alpha_mix =  0.700 |ddv_scf|^2 =  1.254E-07

      iter #   4 total cpu time :    78.0 secs   av.it.:  10.2
      thresh= 3.541E-05 alpha_mix =  0.700 |ddv_scf|^2 =  4.154E-09

      iter #   5 total cpu time :    79.3 secs   av.it.:  10.4
      thresh= 6.445E-06 alpha_mix =  0.700 |ddv_scf|^2 =  8.476E-10

      iter #   6 total cpu time :    80.7 secs   av.it.:  10.3
      thresh= 2.911E-06 alpha_mix =  0.700 |ddv_scf|^2 =  8.669E-12

      iter #   7 total cpu time :    82.0 secs   av.it.:  10.6
      thresh= 2.944E-07 alpha_mix =  0.700 |ddv_scf|^2 =  3.001E-13

     End of self-consistent calculation

     Convergence has been achieved 


     Representation #  3 mode #   3

     Self-consistent Calculation

      iter #   1 total cpu time :    83.0 secs   av.it.:   5.7
      thresh= 1.000E-02 alpha_mix =  0.700 |ddv_scf|^2 =  1.487E-05

      iter #   2 total cpu time :    84.3 secs   av.it.:  10.4
      thresh= 3.856E-04 alpha_mix =  0.700 |ddv_scf|^2 =  4.033E-05

      iter #   3 total cpu time :    85.5 secs   av.it.:   9.0
      thresh= 6.351E-04 alpha_mix =  0.700 |ddv_scf|^2 =  2.194E-07

      iter #   4 total cpu time :    86.7 secs   av.it.:  10.0
      thresh= 4.684E-05 alpha_mix =  0.700 |ddv_scf|^2 =  4.235E-09

      iter #   5 total cpu time :    88.0 secs   av.it.:  10.4
      thresh= 6.508E-06 alpha_mix =  0.700 |ddv_scf|^2 =  8.242E-10

      iter #   6 total cpu time :    89.3 secs   av.it.:  10.3
      thresh= 2.871E-06 alpha_mix =  0.700 |ddv_scf|^2 =  6.069E-12

      iter #   7 total cpu time :    90.6 secs   av.it.:  10.5
      thresh= 2.464E-07 alpha_mix =  0.700 |ddv_scf|^2 =  1.764E-13

     End of self-consistent calculation

     Convergence has been achieved 


     Representation #  4 mode #   4

     Self-consistent Calculation

      iter #   1 total cpu time :    91.6 secs   av.it.:   5.5
      thresh= 1.000E-02 alpha_mix =  0.700 |ddv_scf|^2 =  6.466E-06

      iter #   2 total cpu time :    92.9 secs   av.it.:  10.7
      thresh= 2.543E-04 alpha_mix =  0.700 |ddv_scf|^2 =  1.362E-05

      iter #   3 total cpu time :    94.4 secs   av.it.:   9.4
      thresh= 3.691E-04 alpha_mix =  0.700 |ddv_scf|^2 =  2.951E-07

      iter #   4 total cpu time :    96.0 secs   av.it.:   9.8
      thresh= 5.433E-05 alpha_mix =  0.700 |ddv_scf|^2 =  3.626E-09

      iter #   5 total cpu time :    97.4 secs   av.it.:  10.5
      thresh= 6.022E-06 alpha_mix =  0.700 |ddv_scf|^2 =  6.785E-10

      iter #   6 total cpu time :    98.8 secs   av.it.:  10.4
      thresh= 2.605E-06 alpha_mix =  0.700 |ddv_scf|^2 =  3.931E-12

      iter #   7 total cpu time :   100.2 secs   av.it.:  10.6
      thresh= 1.983E-07 alpha_mix =  0.700 |ddv_scf|^2 =  1.764E-13

     End of self-consistent calculation

     Convergence has been achieved 


     Representation #  5 mode #   5

     Self-consistent Calculation

      iter #   1 total cpu time :   101.2 secs   av.it.:   5.2
      thresh= 1.000E-02 alpha_mix =  0.700 |ddv_scf|^2 =  6.687E-07

      iter #   2 total cpu time :   102.5 secs   av.it.:  10.4
      thresh= 8.177E-05 alpha_mix =  0.700 |ddv_scf|^2 =  1.090E-07

      iter #   3 total cpu time :   103.8 secs   av.it.:  10.1
      thresh= 3.301E-05 alpha_mix =  0.700 |ddv_scf|^2 =  1.453E-09

      iter #   4 total cpu time :   105.1 secs   av.it.:   9.6
      thresh= 3.812E-06 alpha_mix =  0.700 |ddv_scf|^2 =  3.372E-12

      iter #   5 total cpu time :   106.3 secs   av.it.:  10.0
      thresh= 1.836E-07 alpha_mix =  0.700 |ddv_scf|^2 =  9.371E-14

     End of self-consistent calculation

     Convergence has been achieved 


     Representation #  6 mode #   6

     Self-consistent Calculation

      iter #   1 total cpu time :   107.3 secs   av.it.:   5.2
      thresh= 1.000E-02 alpha_mix =  0.700 |ddv_scf|^2 =  6.687E-07

      iter #   2 total cpu time :   108.6 secs   av.it.:  10.4
[...]
        k(   59) = (  -0.8750000   0.1250000  -0.1250000), wk =   0.0625000
        k(   60) = (  -1.3750000  -0.8750000  -0.1250000), wk =   0.0000000
        k(   61) = (  -1.1250000   0.3750000  -0.3750000), wk =   0.0625000
        k(   62) = (  -1.6250000  -0.6250000  -0.3750000), wk =   0.0000000
        k(   63) = (  -0.3750000   0.3750000   1.1250000), wk =   0.0625000
        k(   64) = (  -0.8750000  -0.6250000   1.1250000), wk =   0.0000000

     Dense  grid:    16961 G-vectors     FFT dimensions: (  36,  36,  36)

     Smooth grid:     5985 G-vectors     FFT dimensions: (  25,  25,  25)

     Estimated max dynamical RAM per process >       1.51MB

     Estimated total allocated dynamical RAM >       6.03MB

     The potential is recalculated from file :
     ./_ph0/silicon.10.290.save/charge-density.dat

     Starting wfc are    8 atomic wfcs

     Band Structure Calculation
     Davidson diagonalization with overlap

     ethr =  1.25E-10,  avg # of iterations = 12.1

     total cpu time spent up to now is       10.8 secs

     End of band structure calculation

          k =-0.1250 0.1250 0.1250 (   746 PWs)   bands (ev):

    -5.5913   4.5141   5.8232   5.8232

          k =-0.6250-0.8750 0.1250 (   751 PWs)   bands (ev):

    -2.3543  -0.8011   2.0865   3.1769

          k =-0.3750 0.3750-0.1250 (   757 PWs)   bands (ev):

    -4.5533   1.5013   3.8165   5.3400

          k =-0.8750-0.6250-0.1250 (   751 PWs)   bands (ev):

    -2.3543  -0.8011   2.0865   3.1769

          k = 0.3750-0.3750 0.6250 (   759 PWs)   bands (ev):

    -3.3971  -0.6030   3.8432   4.5587

          k =-0.1250-1.3750 0.6250 (   757 PWs)   bands (ev):

    -2.8964  -0.5052   2.1502   4.2376

          k = 0.1250-0.1250 0.3750 (   765 PWs)   bands (ev):

    -5.0578   2.8925   4.8026   4.8738

          k =-0.3750-1.1250 0.3750 (   757 PWs)   bands (ev):

    -2.8964  -0.5052   2.1502   4.2376

          k =-0.1250 0.6250 0.1250 (   760 PWs)   bands (ev):

    -4.0153   1.1782   3.4613   3.9194

          k =-0.6250-0.3750 0.1250 (   756 PWs)   bands (ev):

    -3.5938   0.2889   2.8146   4.1967

          k = 0.6250-0.1250 0.8750 (   751 PWs)   bands (ev):

    -2.3543  -0.8011   2.0865   3.1769

          k = 0.1250-1.1250 0.8750 (   757 PWs)   bands (ev):

    -2.5269  -0.7011   2.7049   3.4480

          k = 0.3750 0.1250 0.6250 (   756 PWs)   bands (ev):

    -3.5938   0.2889   2.8146   4.1967

          k =-0.1250-0.8750 0.6250 (   751 PWs)   bands (ev):

    -2.3543  -0.8011   2.0865   3.1769

          k =-0.1250-0.8750 0.1250 (   757 PWs)   bands (ev):

    -2.5269  -0.7011   2.7049   3.4480

          k =-0.6250-1.8750 0.1250 (   760 PWs)   bands (ev):

    -4.0153   1.1782   3.4613   3.9194

          k =-0.3750 0.3750 0.3750 (   763 PWs)   bands (ev):

    -4.1143   0.1927   5.0295   5.0295

          k =-0.8750-0.6250 0.3750 (   756 PWs)   bands (ev):

    -3.5938   0.2889   2.8146   4.1967

          k = 0.3750-0.3750 1.1250 (   757 PWs)   bands (ev):

    -2.8964  -0.5052   2.1502   4.2376

          k =-0.1250-1.3750 1.1250 (   751 PWs)   bands (ev):

    -2.3543  -0.8011   2.0865   3.1769

          k = 0.1250-0.3750 0.3750 (   757 PWs)   bands (ev):

    -4.5533   1.5013   3.8165   5.3400

          k =-0.3750-1.3750 0.3750 (   759 PWs)   bands (ev):

    -3.3971  -0.6030   3.8432   4.5587

          k = 0.3750-0.3750-0.1250 (   757 PWs)   bands (ev):

    -4.5533   1.5013   3.8165   5.3400

          k =-0.1250-1.3750-0.1250 (   760 PWs)   bands (ev):

    -4.0153   1.1782   3.4613   3.9194

          k =-0.6250 0.3750-0.3750 (   759 PWs)   bands (ev):

    -3.3971  -0.6030   3.8432   4.5587

          k =-1.1250-0.6250-0.3750 (   756 PWs)   bands (ev):

    -3.5938   0.2889   2.8146   4.1967

          k =-0.3750 0.3750 0.6250 (   759 PWs)   bands (ev):

    -3.3971  -0.6030   3.8432   4.5587

          k =-0.8750-0.6250 0.6250 (   757 PWs)   bands (ev):

    -4.5533   1.5013   3.8165   5.3400

          k =-0.3750 0.1250-0.1250 (   765 PWs)   bands (ev):

    -5.0578   2.8925   4.8026   4.8738

          k =-0.8750-0.8750-0.1250 (   757 PWs)   bands (ev):

    -2.5269  -0.7011   2.7049   3.4480

          k =-0.1250 0.1250 0.3750 (   765 PWs)   bands (ev):

    -5.0578   2.8925   4.8026   4.8738

          k =-0.6250-0.8750 0.3750 (   756 PWs)   bands (ev):

    -3.5938   0.2889   2.8146   4.1967

          k = 0.1250 0.6250-0.1250 (   760 PWs)   bands (ev):

    -4.0153   1.1782   3.4613   3.9194

          k =-0.3750-0.3750-0.1250 (   757 PWs)   bands (ev):

    -4.5533   1.5013   3.8165   5.3400

          k = 0.6250 0.1250-0.1250 (   760 PWs)   bands (ev):

    -4.0153   1.1782   3.4613   3.9194

          k = 0.1250-0.8750-0.1250 (   757 PWs)   bands (ev):

    -2.5269  -0.7011   2.7049   3.4480

          k =-0.8750 0.1250-0.6250 (   751 PWs)   bands (ev):

    -2.3543  -0.8011   2.0865   3.1769

          k =-1.3750-0.8750-0.6250 (   757 PWs)   bands (ev):

    -4.5533   1.5013   3.8165   5.3400

          k = 0.8750-0.1250 0.6250 (   751 PWs)   bands (ev):

    -2.3543  -0.8011   2.0865   3.1769

          k = 0.3750-1.1250 0.6250 (   756 PWs)   bands (ev):

    -3.5938   0.2889   2.8146   4.1967

          k =-0.6250 0.1250 0.8750 (   751 PWs)   bands (ev):

    -2.3543  -0.8011   2.0865   3.1769

          k =-1.1250-0.8750 0.8750 (   746 PWs)   bands (ev):

    -5.5913   4.5141   5.8232   5.8232

          k =-0.1250 0.8750 0.6250 (   751 PWs)   bands (ev):

    -2.3543  -0.8011   2.0865   3.1769

          k =-0.6250-0.1250 0.6250 (   757 PWs)   bands (ev):

    -2.8964  -0.5052   2.1502   4.2376

          k = 0.1250 0.8750-0.6250 (   751 PWs)   bands (ev):

    -2.3543  -0.8011   2.0865   3.1769

          k =-0.3750-0.1250-0.6250 (   756 PWs)   bands (ev):

    -3.5938   0.2889   2.8146   4.1967

          k =-0.6250-0.1250-0.3750 (   756 PWs)   bands (ev):

    -3.5938   0.2889   2.8146   4.1967

          k =-1.1250-1.1250-0.3750 (   760 PWs)   bands (ev):

    -4.0153   1.1782   3.4613   3.9194

          k = 0.6250 0.1250 0.3750 (   756 PWs)   bands (ev):

    -3.5938   0.2889   2.8146   4.1967

          k = 0.1250-0.8750 0.3750 (   751 PWs)   bands (ev):

    -2.3543  -0.8011   2.0865   3.1769

          k =-0.3750-0.1250 0.6250 (   756 PWs)   bands (ev):

    -3.5938   0.2889   2.8146   4.1967

          k =-0.8750-1.1250 0.6250 (   765 PWs)   bands (ev):

    -5.0578   2.8925   4.8026   4.8738

          k = 0.1250 0.6250 0.3750 (   756 PWs)   bands (ev):

    -3.5938   0.2889   2.8146   4.1967

          k =-0.3750-0.3750 0.3750 (   763 PWs)   bands (ev):

    -4.1143   0.1927   5.0295   5.0295

          k =-0.1250 0.6250-0.3750 (   756 PWs)   bands (ev):

    -3.5938   0.2889   2.8146   4.1967

          k =-0.6250-0.3750-0.3750 (   759 PWs)   bands (ev):

    -3.3971  -0.6030   3.8432   4.5587

          k = 0.1250-0.8750-0.1250 (   757 PWs)   bands (ev):

    -2.5269  -0.7011   2.7049   3.4480

          k =-0.3750-1.8750-0.1250 (   765 PWs)   bands (ev):

    -5.0578   2.8925   4.8026   4.8738

          k =-0.8750 0.1250-0.1250 (   757 PWs)   bands (ev):

    -2.5269  -0.7011   2.7049   3.4480

          k =-1.3750-0.8750-0.1250 (   751 PWs)   bands (ev):

    -2.3543  -0.8011   2.0865   3.1769

          k =-1.1250 0.3750-0.3750 (   757 PWs)   bands (ev):

    -2.8964  -0.5052   2.1502   4.2376

          k =-1.6250-0.6250-0.3750 (   759 PWs)   bands (ev):

    -3.3971  -0.6030   3.8432   4.5587

          k =-0.3750 0.3750 1.1250 (   757 PWs)   bands (ev):

    -2.8964  -0.5052   2.1502   4.2376

          k =-0.8750-0.6250 1.1250 (   765 PWs)   bands (ev):

    -5.0578   2.8925   4.8026   4.8738

     highest occupied level (ev):     5.8232

     Writing output data file silicon.10.290.save

                                                                                

     bravais-lattice index     =            2
     lattice parameter (alat)  =      10.2900  a.u.
     unit-cell volume          =     272.3868 (a.u.)^3
     number of atoms/cell      =            2
     number of atomic types    =            1
     kinetic-energy cut-off    =      30.0000  Ry
     charge density cut-off    =     240.0000  Ry
     convergence threshold     =      1.0E-12
     beta                      =       0.7000
     number of iterations used =            4
     Exchange-correlation      = SLA  PW   PBE  PBE ( 1  4  3  4 0 0)


     celldm(1)=   10.29000  celldm(2)=    0.00000  celldm(3)=    0.00000
     celldm(4)=    0.00000  celldm(5)=    0.00000  celldm(6)=    0.00000

     crystal axes: (cart. coord. in units of alat)
               a(1) = ( -0.5000  0.0000  0.5000 )  
               a(2) = (  0.0000  0.5000  0.5000 )  
               a(3) = ( -0.5000  0.5000  0.0000 )  

     reciprocal axes: (cart. coord. in units 2 pi/alat)
               b(1) = ( -1.0000 -1.0000  1.0000 )  
               b(2) = (  1.0000  1.0000  1.0000 )  
               b(3) = ( -1.0000  1.0000 -1.0000 )  


     Atoms inside the unit cell: 

     Cartesian axes

     site n.  atom      mass           positions (alat units)
        1     Si  28.0860   tau(    1) = (    0.00000    0.00000    0.00000  )
        2     Si  28.0860   tau(    2) = (    0.25000    0.25000    0.25000  )

     Computing dynamical matrix for 
                    q = (  -0.5000000  -1.0000000   0.0000000 )

      8 Sym.Ops. (no q -> -q+G )


     G cutoff =  643.6981  (   4241 G-vectors)     FFT grid: ( 36, 36, 36)
     G cutoff =  321.8491  (   1497 G-vectors)  smooth grid: ( 25, 25, 25)
     number of k points=    64

     PseudoPot. # 1 for Si read from file:
     /home/s1333534/quantum_espresso/qe-6.1/pseudo/si_pbe_v1.uspp.F.UPF.txt
     MD5 check sum: a056efeee980c13900f22a371efd63c1
     Pseudo is Ultrasoft + core correction, Zval =  4.0
     Generated by new atomic code, or converted to UPF format
     Using radial grid of  899 points,  6 beta functions with: 
                l(1) =   0
                l(2) =   0
                l(3) =   1
                l(4) =   1
                l(5) =   2
                l(6) =   2
     Q(r) pseudized with  8 coefficients,  rinner =    0.900   0.900   0.900
                                                       0.900   0.900


     Atomic displacements:
     There are   3 irreducible representations

     Representation     1      2 modes -  To be done

     Representation     2      2 modes -  To be done

     Representation     3      2 modes -  To be done



     Alpha used in Ewald sum =   2.5000
     PHONON       :  2m 2.29s CPU     2m31.28s WALL



     Representation #  1 modes #   1  2

     Self-consistent Calculation

      iter #   1 total cpu time :   151.9 secs   av.it.:   5.7
      thresh= 1.000E-02 alpha_mix =  0.700 |ddv_scf|^2 =  1.095E-06

      iter #   2 total cpu time :   152.7 secs   av.it.:  11.6
      thresh= 1.047E-04 alpha_mix =  0.700 |ddv_scf|^2 =  6.214E-07

      iter #   3 total cpu time :   153.5 secs   av.it.:  11.1
      thresh= 7.883E-05 alpha_mix =  0.700 |ddv_scf|^2 =  5.918E-10

      iter #   4 total cpu time :   154.3 secs   av.it.:  11.0
      thresh= 2.433E-06 alpha_mix =  0.700 |ddv_scf|^2 =  2.626E-12

      iter #   5 total cpu time :   155.0 secs   av.it.:  11.1
      thresh= 1.620E-07 alpha_mix =  0.700 |ddv_scf|^2 =  6.900E-14

     End of self-consistent calculation

     Convergence has been achieved 


     Representation #  2 modes #   3  4

     Self-consistent Calculation

      iter #   1 total cpu time :   155.7 secs   av.it.:   5.7
      thresh= 1.000E-02 alpha_mix =  0.700 |ddv_scf|^2 =  1.692E-06

      iter #   2 total cpu time :   156.5 secs   av.it.:  11.6
      thresh= 1.301E-04 alpha_mix =  0.700 |ddv_scf|^2 =  2.266E-06

      iter #   3 total cpu time :   157.4 secs   av.it.:  10.9
      thresh= 1.505E-04 alpha_mix =  0.700 |ddv_scf|^2 =  6.962E-10

      iter #   4 total cpu time :   158.1 secs   av.it.:  11.0
      thresh= 2.638E-06 alpha_mix =  0.700 |ddv_scf|^2 =  1.005E-11

      iter #   5 total cpu time :   158.8 secs   av.it.:  11.1
      thresh= 3.170E-07 alpha_mix =  0.700 |ddv_scf|^2 =  1.728E-13

     End of self-consistent calculation

     Convergence has been achieved 


     Representation #  3 modes #   5  6

     Self-consistent Calculation

      iter #   1 total cpu time :   159.5 secs   av.it.:   5.3
      thresh= 1.000E-02 alpha_mix =  0.700 |ddv_scf|^2 =  4.448E-07

      iter #   2 total cpu time :   160.3 secs   av.it.:  11.6
      thresh= 6.669E-05 alpha_mix =  0.700 |ddv_scf|^2 =  2.602E-07

      iter #   3 total cpu time :   161.1 secs   av.it.:  11.1
      thresh= 5.101E-05 alpha_mix =  0.700 |ddv_scf|^2 =  5.161E-10

      iter #   4 total cpu time :   161.9 secs   av.it.:  11.0
      thresh= 2.272E-06 alpha_mix =  0.700 |ddv_scf|^2 =  5.951E-12

      iter #   5 total cpu time :   162.6 secs   av.it.:  11.1
      thresh= 2.439E-07 alpha_mix =  0.700 |ddv_scf|^2 =  8.331E-14

     End of self-consistent calculation

     Convergence has been achieved 

     Number of q in the star =    6
     List of q in the star:
          1  -0.500000000  -1.000000000   0.000000000
          2   0.000000000   1.000000000   0.500000000
          3   0.000000000  -1.000000000  -0.500000000
          4   0.500000000   1.000000000   0.000000000
          5  -1.000000000  -0.500000000   0.000000000
          6   0.000000000  -0.500000000  -1.000000000

     Diagonalizing the dynamical matrix

     q = (   -0.500000000  -1.000000000   0.000000000 ) 

 **************************************************************************
     freq (    1) =       5.983171 [THz] =     199.577105 [cm-1]
     freq (    2) =       5.983171 [THz] =     199.577105 [cm-1]
     freq (    3) =      10.478166 [THz] =     349.514005 [cm-1]
     freq (    4) =      10.478166 [THz] =     349.514005 [cm-1]
     freq (    5) =      13.812445 [THz] =     460.733573 [cm-1]
     freq (    6) =      13.812445 [THz] =     460.733573 [cm-1]
 **************************************************************************

     init_run     :      1.24s CPU      1.30s WALL (       7 calls)
     electrons    :      7.20s CPU      7.75s WALL (       7 calls)

     Called by init_run:
     wfcinit      :      0.00s CPU      0.02s WALL (       7 calls)
     potinit      :      0.07s CPU      0.09s WALL (       7 calls)

     Called by electrons:
     c_bands      :      7.20s CPU      7.74s WALL (       7 calls)
     v_of_rho     :      0.06s CPU      0.07s WALL (       8 calls)
     newd         :      0.13s CPU      0.13s WALL (       8 calls)

     Called by c_bands:
     init_us_2    :      1.62s CPU      1.56s WALL (   16040 calls)
     cegterg      :      6.02s CPU      6.47s WALL (     796 calls)

     Called by sum_band:

     Called by *egterg:
     h_psi        :     68.64s CPU     73.48s WALL (  154445 calls)
     s_psi        :      5.79s CPU      7.03s WALL (  311292 calls)
     g_psi        :      0.05s CPU      0.07s WALL (    9666 calls)
     cdiaghg      :      0.57s CPU      0.56s WALL (   10462 calls)

     Called by h_psi:
     h_psi:pot    :     68.22s CPU     72.97s WALL (  154445 calls)
     h_psi:calbec :      3.43s CPU      4.02s WALL (  154445 calls)
     vloc_psi     :     60.10s CPU     64.77s WALL (  154445 calls)
     add_vuspsi   :      4.36s CPU      3.71s WALL (  154445 calls)

     General routines
     calbec       :      8.08s CPU      8.51s WALL (  345744 calls)
     fft          :      1.31s CPU      1.38s WALL (    5265 calls)
     ffts         :      0.22s CPU      0.25s WALL (    3320 calls)
     fftw         :     63.37s CPU     67.43s WALL ( 1383354 calls)
     interpolate  :      0.22s CPU      0.26s WALL (     572 calls)
     davcio       :      0.31s CPU      1.08s WALL (   69876 calls)

     Parallel routines
     fft_scatter  :     15.94s CPU     19.24s WALL ( 1391939 calls)

     PHONON       :  2m11.33s CPU     2m42.94s WALL

     INITIALIZATION: 
     phq_setup    :      0.23s CPU      0.45s WALL (       8 calls)
     phq_init     :      6.74s CPU      7.05s WALL (       8 calls)

     phq_init     :      6.74s CPU      7.05s WALL (       8 calls)
     set_drhoc    :      1.80s CPU      1.80s WALL (      24 calls)
     init_vloc    :      0.03s CPU      0.03s WALL (       8 calls)
     init_us_1    :      0.97s CPU      0.97s WALL (       8 calls)
     newd         :      0.13s CPU      0.13s WALL (       8 calls)
     dvanqq       :      1.13s CPU      1.15s WALL (       8 calls)
     drho         :      2.57s CPU      2.65s WALL (       8 calls)

     DYNAMICAL MATRIX:
     dynmat0      :      1.70s CPU      1.81s WALL (       8 calls)
     phqscf       :    111.13s CPU    137.22s WALL (       8 calls)
     dynmatrix    :      0.01s CPU      0.23s WALL (       8 calls)

     phqscf       :    111.13s CPU    137.22s WALL (       8 calls)
     solve_linter :    110.27s CPU    134.67s WALL (      32 calls)
     drhodv       :      0.58s CPU      0.60s WALL (      32 calls)

     dynmat0      :      1.70s CPU      1.81s WALL (       8 calls)
     dynmat_us    :      0.39s CPU      0.39s WALL (       8 calls)
     d2ionq       :      0.04s CPU      0.04s WALL (       8 calls)
     dynmatcc     :      1.26s CPU      1.26s WALL (       8 calls)

     dynmat_us    :      0.39s CPU      0.39s WALL (       8 calls)
     addusdynmat  :      0.00s CPU      0.00s WALL (       8 calls)

     phqscf       :    111.13s CPU    137.22s WALL (       8 calls)
     solve_linter :    110.27s CPU    134.67s WALL (      32 calls)

     solve_linter :    110.27s CPU    134.67s WALL (      32 calls)
     dvqpsi_us    :      2.12s CPU      2.25s WALL (    2508 calls)
     ortho        :      0.99s CPU      1.14s WALL (   13630 calls)
     cgsolve      :     76.03s CPU     82.68s WALL (   13630 calls)
     incdrhoscf   :      6.27s CPU      6.85s WALL (   13630 calls)
     addusddens   :      6.97s CPU      7.02s WALL (     202 calls)
     vpsifft      :      4.49s CPU      4.92s WALL (   11002 calls)
     dv_of_drho   :      1.22s CPU      1.27s WALL (     256 calls)
     mix_pot      :      0.33s CPU      8.27s WALL (     175 calls)
     psymdvscf    :      4.04s CPU      4.10s WALL (     170 calls)
     newdq        :      7.54s CPU      7.56s WALL (     175 calls)
     adddvscf     :      0.45s CPU      0.43s WALL (   11122 calls)
     drhodvus     :      0.01s CPU      0.01s WALL (      32 calls)

     dvqpsi_us    :      2.12s CPU      2.25s WALL (    2508 calls)
     dvqpsi_us_on :      0.90s CPU      0.93s WALL (    2508 calls)

     cgsolve      :     76.03s CPU     82.68s WALL (   13630 calls)
     ch_psi       :     74.97s CPU     80.96s WALL (  143187 calls)

     ch_psi       :     74.97s CPU     80.96s WALL (  143187 calls)
     h_psi        :     68.64s CPU     73.48s WALL (  154445 calls)
     last         :      8.89s CPU      9.03s WALL (  143187 calls)

     h_psi        :     68.64s CPU     73.48s WALL (  154445 calls)
     add_vuspsi   :      4.36s CPU      3.71s WALL (  154445 calls)

     incdrhoscf   :      6.27s CPU      6.85s WALL (   13630 calls)
     addusdbec    :      0.46s CPU      0.51s WALL (   16078 calls)

     drhodvus     :      0.01s CPU      0.01s WALL (      32 calls)

      General routines
     calbec       :      8.08s CPU      8.51s WALL (  345744 calls)
     fft          :      1.31s CPU      1.38s WALL (    5265 calls)
     ffts         :      0.22s CPU      0.25s WALL (    3320 calls)
     fftw         :     63.37s CPU     67.43s WALL ( 1383354 calls)
     davcio       :      0.31s CPU      1.08s WALL (   69876 calls)
     write_rec    :      0.23s CPU     10.13s WALL (     207 calls)


     PHONON       :  2m11.33s CPU     2m42.94s WALL


   This run was terminated on:  15:48:31  10Nov2017            

=------------------------------------------------------------------------------=
   JOB DONE.
=------------------------------------------------------------------------------=
