
     Program PWSCF v.6.1 (svn rev. 13369) starts on 10Nov2017 at 10:31:17 

     This program is part of the open-source Quantum ESPRESSO suite
     for quantum simulation of materials; please cite
         "P. Giannozzi et al., J. Phys.:Condens. Matter 21 395502 (2009);
          URL http://www.quantum-espresso.org", 
     in publications or presentations arising from this work. More details at
     http://www.quantum-espresso.org/quote

     Parallel version (MPI), running on     4 processors
     R & G space division:  proc/nbgrp/npool/nimage =       4
     Waiting for input...
     Reading input from standard input
     Message from routine read_cards :
     DEPRECATED: no units specified in ATOMIC_POSITIONS card
     Message from routine read_cards :
     ATOMIC_POSITIONS: units set to alat

     Current dimensions of program PWSCF are:
     Max number of different atomic species (ntypx) = 10
     Max number of k-points (npk) =  40000
     Max angular momentum in pseudopotentials (lmaxx) =  3

     Subspace diagonalization in iterative solution of the eigenvalue problem:
     a serial algorithm will be used


     Parallelization info
     --------------------
     sticks:   dense  smooth     PW     G-vecs:    dense   smooth      PW
     Min         219     109     37                 4315     1545     301
     Max         220     110     38                 4316     1546     304
     Sum         877     439    151                17261     6183    1211



     bravais-lattice index     =            2
     lattice parameter (alat)  =      10.3260  a.u.
     unit-cell volume          =     275.2557 (a.u.)^3
     number of atoms/cell      =            2
     number of atomic types    =            1
     number of electrons       =         8.00
     number of Kohn-Sham states=            4
     kinetic-energy cutoff     =      30.0000  Ry
     charge density cutoff     =     240.0000  Ry
     convergence threshold     =      1.0E-08
     mixing beta               =       0.7000
     number of iterations used =            8  plain     mixing
     Exchange-correlation      = SLA  PW   PBE  PBE ( 1  4  3  4 0 0)

     celldm(1)=  10.326000  celldm(2)=   0.000000  celldm(3)=   0.000000
     celldm(4)=   0.000000  celldm(5)=   0.000000  celldm(6)=   0.000000

     crystal axes: (cart. coord. in units of alat)
               a(1) = (  -0.500000   0.000000   0.500000 )  
               a(2) = (   0.000000   0.500000   0.500000 )  
               a(3) = (  -0.500000   0.500000   0.000000 )  

     reciprocal axes: (cart. coord. in units 2 pi/alat)
               b(1) = ( -1.000000 -1.000000  1.000000 )  
               b(2) = (  1.000000  1.000000  1.000000 )  
               b(3) = ( -1.000000  1.000000 -1.000000 )  


     PseudoPot. # 1 for Si read from file:
     /home/max/quantum_espresso/qe-6.1/pseudo/si_pbe_v1.uspp.F.UPF.txt
     MD5 check sum: a056efeee980c13900f22a371efd63c1
     Pseudo is Ultrasoft + core correction, Zval =  4.0
     Generated by new atomic code, or converted to UPF format
     Using radial grid of  899 points,  6 beta functions with: 
                l(1) =   0
                l(2) =   0
                l(3) =   1
                l(4) =   1
                l(5) =   2
                l(6) =   2
     Q(r) pseudized with  8 coefficients,  rinner =    0.900   0.900   0.900
                                                       0.900   0.900

     atomic species   valence    mass     pseudopotential
        Si             4.00    28.08600     Si( 1.00)

     48 Sym. Ops., with inversion, found (24 have fractional translation)



   Cartesian axes

     site n.     atom                  positions (alat units)
         1           Si  tau(   1) = (   0.0000000   0.0000000   0.0000000  )
         2           Si  tau(   2) = (   0.2500000   0.2500000   0.2500000  )

     number of k points=    28
                       cart. coord. in units 2pi/alat
        k(    1) = (  -0.0833333   0.0833333   0.0833333), wk =   0.0185185
        k(    2) = (  -0.2500000   0.2500000  -0.0833333), wk =   0.0555556
        k(    3) = (  -0.4166667   0.4166667  -0.2500000), wk =   0.0555556
        k(    4) = (   0.4166667  -0.4166667   0.5833333), wk =   0.0555556
        k(    5) = (   0.2500000  -0.2500000   0.4166667), wk =   0.0555556
        k(    6) = (   0.0833333  -0.0833333   0.2500000), wk =   0.0555556
        k(    7) = (  -0.0833333   0.4166667   0.0833333), wk =   0.0555556
        k(    8) = (  -0.2500000   0.5833333  -0.0833333), wk =   0.1111111
        k(    9) = (   0.5833333  -0.2500000   0.7500000), wk =   0.1111111
        k(   10) = (   0.4166667  -0.0833333   0.5833333), wk =   0.1111111
        k(   11) = (   0.2500000   0.0833333   0.4166667), wk =   0.1111111
        k(   12) = (  -0.0833333   0.7500000   0.0833333), wk =   0.0555556
        k(   13) = (   0.7500000  -0.0833333   0.9166667), wk =   0.1111111
        k(   14) = (   0.5833333   0.0833333   0.7500000), wk =   0.1111111
        k(   15) = (   0.4166667   0.2500000   0.5833333), wk =   0.1111111
        k(   16) = (  -0.0833333  -0.9166667   0.0833333), wk =   0.0555556
        k(   17) = (  -0.2500000  -0.7500000  -0.0833333), wk =   0.1111111
        k(   18) = (  -0.0833333  -0.5833333   0.0833333), wk =   0.0555556
        k(   19) = (  -0.2500000   0.2500000   0.2500000), wk =   0.0185185
        k(   20) = (  -0.4166667   0.4166667   0.0833333), wk =   0.0555556
        k(   21) = (   0.4166667  -0.4166667   0.9166667), wk =   0.0555556
        k(   22) = (   0.2500000  -0.2500000   0.7500000), wk =   0.0555556
        k(   23) = (  -0.2500000   0.5833333   0.2500000), wk =   0.0555556
        k(   24) = (   0.5833333  -0.2500000   1.0833333), wk =   0.1111111
        k(   25) = (   0.4166667  -0.0833333   0.9166667), wk =   0.1111111
        k(   26) = (  -0.2500000  -1.0833333   0.2500000), wk =   0.0555556
        k(   27) = (  -0.4166667   0.4166667   0.4166667), wk =   0.0185185
        k(   28) = (   0.4166667  -0.4166667   1.2500000), wk =   0.0555556

     Dense  grid:    17261 G-vectors     FFT dimensions: (  40,  40,  40)

     Smooth grid:     6183 G-vectors     FFT dimensions: (  25,  25,  25)

     Estimated max dynamical RAM per process >       3.35MB

     Estimated total allocated dynamical RAM >      13.41MB

     Initial potential from superposition of free atoms

     starting charge    7.99866, renormalised to    8.00000
     Starting wfc are    8 randomized atomic wfcs

     total cpu time spent up to now is        0.8 secs

     per-process dynamical memory:     9.8 Mb

     Self-consistent Calculation

     iteration #  1     ecut=    30.00 Ry     beta=0.70
     Davidson diagonalization with overlap
     ethr =  1.00E-02,  avg # of iterations =  2.0

     Threshold (ethr) on eigenvalues was too large:
     Diagonalizing with lowered threshold

     Davidson diagonalization with overlap
     ethr =  6.79E-04,  avg # of iterations =  1.0

     total cpu time spent up to now is        1.2 secs

     total energy              =     -19.19122541 Ry
     Harris-Foulkes estimate   =     -19.20375898 Ry
     estimated scf accuracy    <       0.05383555 Ry

     iteration #  2     ecut=    30.00 Ry     beta=0.70
     Davidson diagonalization with overlap
     ethr =  6.73E-04,  avg # of iterations =  1.0

     total cpu time spent up to now is        1.4 secs

     total energy              =     -19.19299389 Ry
     Harris-Foulkes estimate   =     -19.19316276 Ry
     estimated scf accuracy    <       0.00244697 Ry

     iteration #  3     ecut=    30.00 Ry     beta=0.70
     Davidson diagonalization with overlap
     ethr =  3.06E-05,  avg # of iterations =  2.1

     total cpu time spent up to now is        1.7 secs

     total energy              =     -19.19332649 Ry
     Harris-Foulkes estimate   =     -19.19333954 Ry
     estimated scf accuracy    <       0.00004249 Ry

     iteration #  4     ecut=    30.00 Ry     beta=0.70
     Davidson diagonalization with overlap
     ethr =  5.31E-07,  avg # of iterations =  3.4

     total cpu time spent up to now is        2.0 secs

     total energy              =     -19.19336598 Ry
     Harris-Foulkes estimate   =     -19.19336682 Ry
     estimated scf accuracy    <       0.00000308 Ry

     iteration #  5     ecut=    30.00 Ry     beta=0.70
     Davidson diagonalization with overlap
     ethr =  3.86E-08,  avg # of iterations =  2.0

     total cpu time spent up to now is        2.4 secs

     End of self-consistent calculation

          k =-0.0833 0.0833 0.0833 (   749 PWs)   bands (ev):

    -5.7418   5.1424   5.8601   5.8601

          k =-0.2500 0.2500-0.0833 (   770 PWs)   bands (ev):

    -5.2714   3.0744   4.6407   5.6507

          k =-0.4167 0.4167-0.2500 (   766 PWs)   bands (ev):

    -4.1950   0.3450   4.1778   5.0212

          k = 0.4167-0.4167 0.5833 (   767 PWs)   bands (ev):

    -3.5099  -0.7813   4.2412   4.6460

          k = 0.2500-0.2500 0.4167 (   772 PWs)   bands (ev):

    -4.6004   1.1807   4.7069   4.7344

          k = 0.0833-0.0833 0.2500 (   769 PWs)   bands (ev):

    -5.5043   4.0761   5.2237   5.4031

          k =-0.0833 0.4167 0.0833 (   775 PWs)   bands (ev):

    -5.0333   2.8790   4.4847   4.5030

          k =-0.2500 0.5833-0.0833 (   767 PWs)   bands (ev):

    -4.1353   1.0570   3.1858   4.1202

          k = 0.5833-0.2500 0.7500 (   759 PWs)   bands (ev):

    -3.0382  -0.6651   2.5877   3.8971

          k = 0.4167-0.0833 0.5833 (   768 PWs)   bands (ev):

    -3.7471   0.3746   2.5513   4.3757

          k = 0.2500 0.0833 0.4167 (   769 PWs)   bands (ev):

    -4.8110   2.0557   3.8734   5.0330

          k =-0.0833 0.7500 0.0833 (   767 PWs)   bands (ev):

    -3.4326   0.2319   3.1526   3.4861

          k = 0.7500-0.0833 0.9167 (   755 PWs)   bands (ev):

    -2.2540  -1.0929   2.3251   3.0871

          k = 0.5833 0.0833 0.7500 (   754 PWs)   bands (ev):

    -2.6234  -0.7552   1.8474   3.6249

          k = 0.4167 0.2500 0.5833 (   765 PWs)   bands (ev):

    -3.6382  -0.2916   3.4740   4.4715

          k =-0.0833-0.9167 0.0833 (   764 PWs)   bands (ev):

    -2.3429  -1.1001   2.8867   3.2732

          k =-0.2500-0.7500-0.0833 (   765 PWs)   bands (ev):

    -3.2672   0.0124   2.6398   3.4232

          k =-0.0833-0.5833 0.0833 (   767 PWs)   bands (ev):

    -4.3377   1.5846   3.6891   3.9036

          k =-0.2500 0.2500 0.2500 (   769 PWs)   bands (ev):

    -5.0450   2.1087   5.2533   5.2533

          k =-0.4167 0.4167 0.0833 (   767 PWs)   bands (ev):

    -4.3753   1.1769   3.1499   5.0850

          k = 0.4167-0.4167 0.9167 (   769 PWs)   bands (ev):

    -3.2143  -0.2525   2.0598   4.3098

          k = 0.2500-0.2500 0.7500 (   763 PWs)   bands (ev):

    -3.1621  -0.3311   2.5298   3.8347

          k =-0.2500 0.5833 0.2500 (   771 PWs)   bands (ev):

    -3.9575   0.3806   3.6024   4.2032

          k = 0.5833-0.2500 1.0833 (   759 PWs)   bands (ev):

    -2.9701  -0.3694   2.1593   3.4223

          k = 0.4167-0.0833 0.9167 (   755 PWs)   bands (ev):

    -2.1511  -1.1006   2.0012   2.7655

          k =-0.2500-1.0833 0.2500 (   758 PWs)   bands (ev):

    -2.3593  -1.0039   1.8765   3.6425

          k =-0.4167 0.4167 0.4167 (   769 PWs)   bands (ev):

    -3.8720  -0.3866   4.8680   4.8680

          k = 0.4167-0.4167 1.2500 (   765 PWs)   bands (ev):

    -3.2770  -0.6890   3.0546   4.4347

     highest occupied level (ev):     5.8601

!    total energy              =     -19.19336638 Ry
     Harris-Foulkes estimate   =     -19.19336637 Ry
     estimated scf accuracy    <          9.6E-09 Ry

     The total energy is the sum of the following terms:

     one-electron contribution =       4.96746101 Ry
     hartree contribution      =       1.13193714 Ry
     xc contribution           =      -8.59922032 Ry
     ewald contribution        =     -16.69354420 Ry

     convergence has been achieved in   5 iterations

     Writing output data file silicon.10.326.save

     init_run     :      0.38s CPU      0.68s WALL (       1 calls)
     electrons    :      1.24s CPU      1.62s WALL (       1 calls)

     Called by init_run:
     wfcinit      :      0.09s CPU      0.21s WALL (       1 calls)
     potinit      :      0.03s CPU      0.06s WALL (       1 calls)

     Called by electrons:
     c_bands      :      0.70s CPU      0.85s WALL (       6 calls)
     sum_band     :      0.30s CPU      0.41s WALL (       6 calls)
     v_of_rho     :      0.12s CPU      0.17s WALL (       6 calls)
     newd         :      0.15s CPU      0.21s WALL (       6 calls)
     mix_rho      :      0.01s CPU      0.01s WALL (       6 calls)

     Called by c_bands:
     init_us_2    :      0.05s CPU      0.06s WALL (     364 calls)
     cegterg      :      0.59s CPU      0.72s WALL (     168 calls)

     Called by sum_band:
     sum_band:bec :      0.00s CPU      0.00s WALL (     168 calls)
     addusdens    :      0.13s CPU      0.16s WALL (       6 calls)

     Called by *egterg:
     h_psi        :      0.52s CPU      0.73s WALL (     517 calls)
     s_psi        :      0.04s CPU      0.05s WALL (     517 calls)
     g_psi        :      0.00s CPU      0.00s WALL (     321 calls)
     cdiaghg      :      0.03s CPU      0.04s WALL (     461 calls)

     Called by h_psi:
     h_psi:pot    :      0.52s CPU      0.73s WALL (     517 calls)
     h_psi:calbec :      0.05s CPU      0.08s WALL (     517 calls)
     vloc_psi     :      0.43s CPU      0.60s WALL (     517 calls)
     add_vuspsi   :      0.04s CPU      0.05s WALL (     517 calls)

     General routines
     calbec       :      0.07s CPU      0.12s WALL (     685 calls)
     fft          :      0.09s CPU      0.17s WALL (      96 calls)
     ffts         :      0.00s CPU      0.00s WALL (      12 calls)
     fftw         :      0.43s CPU      0.63s WALL (    4616 calls)
     interpolate  :      0.01s CPU      0.02s WALL (      12 calls)
     davcio       :      0.00s CPU      0.00s WALL (      28 calls)

     Parallel routines
     fft_scatter  :      0.23s CPU      0.47s WALL (    4724 calls)

     PWSCF        :     1.83s CPU         2.60s WALL


   This run was terminated on:  10:31:20  10Nov2017            

=------------------------------------------------------------------------------=
   JOB DONE.
=------------------------------------------------------------------------------=
