
     Program PHONON v.6.1 (svn rev. 13369) starts on  9Nov2017 at 12:12:22 

     This program is part of the open-source Quantum ESPRESSO suite
     for quantum simulation of materials; please cite
         "P. Giannozzi et al., J. Phys.:Condens. Matter 21 395502 (2009);
          URL http://www.quantum-espresso.org", 
     in publications or presentations arising from this work. More details at
     http://www.quantum-espresso.org/quote

     Parallel version (MPI), running on     4 processors
     R & G space division:  proc/nbgrp/npool/nimage =       4

     Reading data from directory:
     ./silicon.10.327.save

   Info: using nr1, nr2, nr3 values from input

   Info: using nr1, nr2, nr3 values from input

     IMPORTANT: XC functional enforced from input :
     Exchange-correlation      = SLA  PW   PBE  PBE ( 1  4  3  4 0 0)
     Any further DFT definition will be discarded
     Please, verify this is what you really want


     Parallelization info
     --------------------
     sticks:   dense  smooth     PW     G-vecs:    dense   smooth      PW
     Min          63      63     22                  684      684     140
     Max          64      64     23                  688      688     141
     Sum         253     253     91                 2741     2741     561


     Check: negative/imaginary core charge=   -0.000005    0.000000


     Dynamical matrices for ( 4, 4, 4)  uniform grid of q-points
     (   8q-points):
       N         xq(1)         xq(2)         xq(3) 
       1   0.000000000   0.000000000   0.000000000
       2  -0.250000000   0.250000000  -0.250000000
       3   0.500000000  -0.500000000   0.500000000
       4   0.000000000   0.500000000   0.000000000
       5   0.750000000  -0.250000000   0.750000000
       6   0.500000000   0.000000000   0.500000000
       7   0.000000000  -1.000000000   0.000000000
       8  -0.500000000  -1.000000000   0.000000000

     Calculation of q =    0.0000000   0.0000000   0.0000000

                                                                                

     bravais-lattice index     =            2
     lattice parameter (alat)  =      10.3270  a.u.
     unit-cell volume          =     275.3357 (a.u.)^3
     number of atoms/cell      =            2
     number of atomic types    =            1
     kinetic-energy cut-off    =      18.0000  Ry
     charge density cut-off    =      72.0000  Ry
     convergence threshold     =      1.0E-12
     beta                      =       0.7000
     number of iterations used =            4
     Exchange-correlation      = SLA  PW   PBE  PBE ( 1  4  3  4 0 0)


     celldm(1)=   10.32700  celldm(2)=    0.00000  celldm(3)=    0.00000
     celldm(4)=    0.00000  celldm(5)=    0.00000  celldm(6)=    0.00000

     crystal axes: (cart. coord. in units of alat)
               a(1) = ( -0.5000  0.0000  0.5000 )  
               a(2) = (  0.0000  0.5000  0.5000 )  
               a(3) = ( -0.5000  0.5000  0.0000 )  

     reciprocal axes: (cart. coord. in units 2 pi/alat)
               b(1) = ( -1.0000 -1.0000  1.0000 )  
               b(2) = (  1.0000  1.0000  1.0000 )  
               b(3) = ( -1.0000  1.0000 -1.0000 )  


     Atoms inside the unit cell: 

     Cartesian axes

     site n.  atom      mass           positions (alat units)
        1     Si  28.0860   tau(    1) = (    0.00000    0.00000    0.00000  )
        2     Si  28.0860   tau(    2) = (    0.25000    0.25000    0.25000  )

     Computing dynamical matrix for 
                    q = (   0.0000000   0.0000000   0.0000000 )

     49 Sym.Ops. (with q -> -q+G )


     G cutoff =  194.5007  (    685 G-vectors)     FFT grid: ( 20, 20, 20)
     number of k points=    10

     PseudoPot. # 1 for Si read from file:
     /home/max/quantum_espresso/qe-6.1/pseudo/si_pbe_v1.uspp.F.UPF.txt
     MD5 check sum: a056efeee980c13900f22a371efd63c1
     Pseudo is Ultrasoft + core correction, Zval =  4.0
     Generated by new atomic code, or converted to UPF format
     Using radial grid of  899 points,  6 beta functions with: 
                l(1) =   0
                l(2) =   0
                l(3) =   1
                l(4) =   1
                l(5) =   2
                l(6) =   2
     Q(r) pseudized with  8 coefficients,  rinner =    0.900   0.900   0.900
                                                       0.900   0.900

     Mode symmetry, O_h (m-3m)  point group:


     Electric field:
     Dielectric constant
     Born effective charges in two ways 


     Atomic displacements:
     There are   2 irreducible representations

     Representation     1      3 modes -T_2g G_25' G_5+  To be done

     Representation     2      3 modes -T_1u G_15  G_4-  To be done



     Alpha used in Ewald sum =   0.7000
     PHONON       :     0.42s CPU         0.44s WALL


     Electric Fields Calculation

      iter #   1 total cpu time :     0.9 secs   av.it.:   5.6
      thresh= 1.000E-02 alpha_mix =  0.700 |ddv_scf|^2 =  9.056E-07

      iter #   2 total cpu time :     1.2 secs   av.it.:   9.9
      thresh= 9.516E-05 alpha_mix =  0.700 |ddv_scf|^2 =  5.565E-08

      iter #   3 total cpu time :     1.5 secs   av.it.:   9.8
      thresh= 2.359E-05 alpha_mix =  0.700 |ddv_scf|^2 =  4.225E-09

      iter #   4 total cpu time :     1.7 secs   av.it.:   9.0
      thresh= 6.500E-06 alpha_mix =  0.700 |ddv_scf|^2 =  2.484E-11

      iter #   5 total cpu time :     1.9 secs   av.it.:   9.1
      thresh= 4.984E-07 alpha_mix =  0.700 |ddv_scf|^2 =  1.322E-14

     End of electric fields calculation

          Dielectric constant in cartesian axis 

          (      13.858046329      -0.000000000      -0.000000000 )
          (      -0.000000000      13.858046329       0.000000000 )
          (      -0.000000000       0.000000000      13.858046329 )

          Effective charges (d Force / dE) in cartesian axis

           atom      1   Si 
      Ex  (       -0.03118        0.00000       -0.00000 )
      Ey  (        0.00000       -0.03118       -0.00000 )
      Ez  (       -0.00000        0.00000       -0.03118 )
           atom      2   Si 
      Ex  (       -0.03118        0.00000        0.00000 )
      Ey  (        0.00000       -0.03118        0.00000 )
      Ez  (        0.00000       -0.00000       -0.03118 )


     Representation #  1 modes #   1  2  3

     Self-consistent Calculation

      iter #   1 total cpu time :     2.3 secs   av.it.:   4.9
      thresh= 1.000E-02 alpha_mix =  0.700 |ddv_scf|^2 =  2.246E-07

      iter #   2 total cpu time :     2.5 secs   av.it.:   9.7
      thresh= 4.739E-05 alpha_mix =  0.700 |ddv_scf|^2 =  1.389E-08

      iter #   3 total cpu time :     2.7 secs   av.it.:   9.3
      thresh= 1.178E-05 alpha_mix =  0.700 |ddv_scf|^2 =  8.570E-10

      iter #   4 total cpu time :     2.9 secs   av.it.:   9.0
      thresh= 2.927E-06 alpha_mix =  0.700 |ddv_scf|^2 =  1.882E-12

      iter #   5 total cpu time :     3.3 secs   av.it.:   9.4
      thresh= 1.372E-07 alpha_mix =  0.700 |ddv_scf|^2 =  1.228E-14

     End of self-consistent calculation

     Convergence has been achieved 


     Representation #  2 modes #   4  5  6

     Self-consistent Calculation

      iter #   1 total cpu time :     3.5 secs   av.it.:   5.0
      thresh= 1.000E-02 alpha_mix =  0.700 |ddv_scf|^2 =  1.704E-07

      iter #   2 total cpu time :     3.7 secs   av.it.:   9.6
      thresh= 4.128E-05 alpha_mix =  0.700 |ddv_scf|^2 =  1.329E-08

      iter #   3 total cpu time :     3.9 secs   av.it.:   9.3
      thresh= 1.153E-05 alpha_mix =  0.700 |ddv_scf|^2 =  8.467E-10

      iter #   4 total cpu time :     4.1 secs   av.it.:   9.5
      thresh= 2.910E-06 alpha_mix =  0.700 |ddv_scf|^2 =  5.075E-12

      iter #   5 total cpu time :     4.3 secs   av.it.:   9.0
      thresh= 2.253E-07 alpha_mix =  0.700 |ddv_scf|^2 =  4.421E-15

     End of self-consistent calculation

     Convergence has been achieved 

     Number of q in the star =    1
     List of q in the star:
          1   0.000000000   0.000000000   0.000000000

          Dielectric constant in cartesian axis 

          (      13.858046329      -0.000000000      -0.000000000 )
          (      -0.000000000      13.858046329       0.000000000 )
          (      -0.000000000       0.000000000      13.858046329 )

          Effective charges (d Force / dE) in cartesian axis

           atom      1   Si 
      Ex  (       -0.03118        0.00000       -0.00000 )
      Ey  (        0.00000       -0.03118       -0.00000 )
      Ez  (       -0.00000        0.00000       -0.03118 )
           atom      2   Si 
      Ex  (       -0.03118        0.00000        0.00000 )
      Ey  (        0.00000       -0.03118        0.00000 )
      Ez  (        0.00000       -0.00000       -0.03118 )

          Effective charges (d P / du) in cartesian axis 

           atom      1   Si 
      Px  (       -0.07228        0.00000        0.00000 )
      Py  (        0.00000       -0.07228       -0.00000 )
      Pz  (        0.00000       -0.00000       -0.07228 )
           atom      2   Si 
      Px  (       -0.07228       -0.00000       -0.00000 )
      Py  (       -0.00000       -0.07228       -0.00000 )
      Pz  (       -0.00000       -0.00000       -0.07228 )

     Diagonalizing the dynamical matrix

     q = (    0.000000000   0.000000000   0.000000000 ) 

 **************************************************************************
     freq (    1) =       1.945910 [THz] =      64.908575 [cm-1]
     freq (    2) =       1.945910 [THz] =      64.908575 [cm-1]
     freq (    3) =       1.945910 [THz] =      64.908575 [cm-1]
     freq (    4) =      15.040937 [THz] =     501.711647 [cm-1]
     freq (    5) =      15.040937 [THz] =     501.711647 [cm-1]
     freq (    6) =      15.040937 [THz] =     501.711647 [cm-1]
 **************************************************************************

     Mode symmetry, O_h (m-3m)  point group:

     freq (  1 -  3) =         64.9  [cm-1]   --> T_1u G_15  G_4- I  
     freq (  4 -  6) =        501.7  [cm-1]   --> T_2g G_25' G_5+ R  

     Calculation of q =   -0.2500000   0.2500000  -0.2500000

   Info: using nr1, nr2, nr3 values from input

   Info: using nr1, nr2, nr3 values from input

     Parallelization info
     --------------------
     sticks:   dense  smooth     PW     G-vecs:    dense   smooth      PW
     Min          63      63     24                  684      684     161
     Max          64      64     25                  688      688     162
     Sum         253     253     97                 2741     2741     645



     bravais-lattice index     =            2
     lattice parameter (alat)  =      10.3270  a.u.
     unit-cell volume          =     275.3357 (a.u.)^3
     number of atoms/cell      =            2
     number of atomic types    =            1
     number of electrons       =         8.00
     number of Kohn-Sham states=            4
     kinetic-energy cutoff     =      18.0000  Ry
     charge density cutoff     =      72.0000  Ry
     Exchange-correlation      = SLA  PW   PBE  PBE ( 1  4  3  4 0 0)

     celldm(1)=  10.327000  celldm(2)=   0.000000  celldm(3)=   0.000000
     celldm(4)=   0.000000  celldm(5)=   0.000000  celldm(6)=   0.000000

     crystal axes: (cart. coord. in units of alat)
               a(1) = (  -0.500000   0.000000   0.500000 )  
               a(2) = (   0.000000   0.500000   0.500000 )  
               a(3) = (  -0.500000   0.500000   0.000000 )  

     reciprocal axes: (cart. coord. in units 2 pi/alat)
               b(1) = ( -1.000000 -1.000000  1.000000 )  
               b(2) = (  1.000000  1.000000  1.000000 )  
               b(3) = ( -1.000000  1.000000 -1.000000 )  


     PseudoPot. # 1 for Si read from file:
     /home/max/quantum_espresso/qe-6.1/pseudo/si_pbe_v1.uspp.F.UPF.txt
     MD5 check sum: a056efeee980c13900f22a371efd63c1
     Pseudo is Ultrasoft + core correction, Zval =  4.0
     Generated by new atomic code, or converted to UPF format
     Using radial grid of  899 points,  6 beta functions with: 
                l(1) =   0
                l(2) =   0
                l(3) =   1
                l(4) =   1
                l(5) =   2
                l(6) =   2
     Q(r) pseudized with  8 coefficients,  rinner =    0.900   0.900   0.900
                                                       0.900   0.900

     atomic species   valence    mass     pseudopotential
        Si             4.00    28.08600     Si( 1.00)

     48 Sym. Ops., with inversion, found



   Cartesian axes

     site n.     atom                  positions (alat units)
         1           Si  tau(   1) = (   0.0000000   0.0000000   0.0000000  )
         2           Si  tau(   2) = (   0.2500000   0.2500000   0.2500000  )

     number of k points=   120

     Number of k-points >= 100: set verbosity='high' to print them.

     Dense  grid:     2741 G-vectors     FFT dimensions: (  20,  20,  20)

     Estimated max dynamical RAM per process >       0.33MB

     Estimated total allocated dynamical RAM >       1.30MB

     Check: negative/imaginary core charge=   -0.000005    0.000000

     The potential is recalculated from file :
     ./_ph0/silicon.10.327.save/charge-density.dat

     Starting wfc are    8 atomic wfcs

     Band Structure Calculation
     Davidson diagonalization with overlap

     ethr =  1.25E-10,  avg # of iterations = 11.7

     total cpu time spent up to now is        1.1 secs

     End of band structure calculation

     Number of k-points >= 100: set verbosity='high' to print the bands.

     highest occupied level (ev):     5.7190

     Writing output data file silicon.10.327.save

                                                                                

     bravais-lattice index     =            2
     lattice parameter (alat)  =      10.3270  a.u.
     unit-cell volume          =     275.3357 (a.u.)^3
     number of atoms/cell      =            2
     number of atomic types    =            1
     kinetic-energy cut-off    =      18.0000  Ry
     charge density cut-off    =      72.0000  Ry
     convergence threshold     =      1.0E-12
     beta                      =       0.7000
     number of iterations used =            4
     Exchange-correlation      = SLA  PW   PBE  PBE ( 1  4  3  4 0 0)


     celldm(1)=   10.32700  celldm(2)=    0.00000  celldm(3)=    0.00000
     celldm(4)=    0.00000  celldm(5)=    0.00000  celldm(6)=    0.00000

     crystal axes: (cart. coord. in units of alat)
               a(1) = ( -0.5000  0.0000  0.5000 )  
               a(2) = (  0.0000  0.5000  0.5000 )  
               a(3) = ( -0.5000  0.5000  0.0000 )  

     reciprocal axes: (cart. coord. in units 2 pi/alat)
               b(1) = ( -1.0000 -1.0000  1.0000 )  
               b(2) = (  1.0000  1.0000  1.0000 )  
               b(3) = ( -1.0000  1.0000 -1.0000 )  


     Atoms inside the unit cell: 

     Cartesian axes

     site n.  atom      mass           positions (alat units)
        1     Si  28.0860   tau(    1) = (    0.00000    0.00000    0.00000  )
        2     Si  28.0860   tau(    2) = (    0.25000    0.25000    0.25000  )

     Computing dynamical matrix for 
                    q = (  -0.2500000   0.2500000  -0.2500000 )

      6 Sym.Ops. (no q -> -q+G )


     G cutoff =  194.5007  (    685 G-vectors)     FFT grid: ( 20, 20, 20)
     number of k points=   120

     PseudoPot. # 1 for Si read from file:
     /home/max/quantum_espresso/qe-6.1/pseudo/si_pbe_v1.uspp.F.UPF.txt
     MD5 check sum: a056efeee980c13900f22a371efd63c1
     Pseudo is Ultrasoft + core correction, Zval =  4.0
     Generated by new atomic code, or converted to UPF format
     Using radial grid of  899 points,  6 beta functions with: 
                l(1) =   0
                l(2) =   0
                l(3) =   1
                l(4) =   1
                l(5) =   2
                l(6) =   2
     Q(r) pseudized with  8 coefficients,  rinner =    0.900   0.900   0.900
                                                       0.900   0.900

     Mode symmetry, C_3v (3m)   point group:


     Atomic displacements:
     There are   4 irreducible representations

     Representation     1      1 modes -A_1  L_1  To be done

     Representation     2      1 modes -A_1  L_1  To be done

     Representation     3      2 modes -E    L_3  To be done

     Representation     4      2 modes -E    L_3  To be done



     Alpha used in Ewald sum =   0.7000
     PHONON       :     5.56s CPU         5.97s WALL



     Representation #  1 mode #   1

     Self-consistent Calculation

      iter #   1 total cpu time :     6.2 secs   av.it.:   5.5
      thresh= 1.000E-02 alpha_mix =  0.700 |ddv_scf|^2 =  2.475E-03

      iter #   2 total cpu time :     6.5 secs   av.it.:   7.5
      thresh= 4.975E-03 alpha_mix =  0.700 |ddv_scf|^2 =  3.732E-02

      iter #   3 total cpu time :     6.7 secs   av.it.:   6.3
      thresh= 1.000E-02 alpha_mix =  0.700 |ddv_scf|^2 =  1.712E-06

      iter #   4 total cpu time :     7.0 secs   av.it.:   8.2
      thresh= 1.308E-04 alpha_mix =  0.700 |ddv_scf|^2 =  1.146E-07

      iter #   5 total cpu time :     7.5 secs   av.it.:   8.1
      thresh= 3.385E-05 alpha_mix =  0.700 |ddv_scf|^2 =  4.387E-09

      iter #   6 total cpu time :     7.8 secs   av.it.:   8.0
      thresh= 6.623E-06 alpha_mix =  0.700 |ddv_scf|^2 =  4.667E-09

      iter #   7 total cpu time :     8.0 secs   av.it.:   6.0
      thresh= 6.832E-06 alpha_mix =  0.700 |ddv_scf|^2 =  4.165E-10

      iter #   8 total cpu time :     8.3 secs   av.it.:   7.3
      thresh= 2.041E-06 alpha_mix =  0.700 |ddv_scf|^2 =  4.004E-12

      iter #   9 total cpu time :     8.6 secs   av.it.:   7.2
      thresh= 2.001E-07 alpha_mix =  0.700 |ddv_scf|^2 =  1.454E-13

     End of self-consistent calculation

     Convergence has been achieved 


     Representation #  2 mode #   2

     Self-consistent Calculation

      iter #   1 total cpu time :     8.8 secs   av.it.:   5.5
      thresh= 1.000E-02 alpha_mix =  0.700 |ddv_scf|^2 =  2.475E-03

      iter #   2 total cpu time :     9.2 secs   av.it.:   7.5
      thresh= 4.975E-03 alpha_mix =  0.700 |ddv_scf|^2 =  3.732E-02

      iter #   3 total cpu time :     9.5 secs   av.it.:   6.3
      thresh= 1.000E-02 alpha_mix =  0.700 |ddv_scf|^2 =  1.712E-06

      iter #   4 total cpu time :     9.8 secs   av.it.:   8.2
      thresh= 1.308E-04 alpha_mix =  0.700 |ddv_scf|^2 =  1.146E-07

      iter #   5 total cpu time :    10.1 secs   av.it.:   8.1
      thresh= 3.385E-05 alpha_mix =  0.700 |ddv_scf|^2 =  4.387E-09

      iter #   6 total cpu time :    10.4 secs   av.it.:   8.0
      thresh= 6.623E-06 alpha_mix =  0.700 |ddv_scf|^2 =  4.667E-09

      iter #   7 total cpu time :    10.7 secs   av.it.:   6.0
      thresh= 6.832E-06 alpha_mix =  0.700 |ddv_scf|^2 =  4.165E-10

      iter #   8 total cpu time :    10.9 secs   av.it.:   7.3
      thresh= 2.041E-06 alpha_mix =  0.700 |ddv_scf|^2 =  4.004E-12

      iter #   9 total cpu time :    11.4 secs   av.it.:   7.2
      thresh= 2.001E-07 alpha_mix =  0.700 |ddv_scf|^2 =  1.454E-13

     End of self-consistent calculation

     Convergence has been achieved 


     Representation #  3 modes #   3  4

     Self-consistent Calculation

      iter #   1 total cpu time :    11.9 secs   av.it.:   4.9
      thresh= 1.000E-02 alpha_mix =  0.700 |ddv_scf|^2 =  5.554E-07

      iter #   2 total cpu time :    12.5 secs   av.it.:   9.5
      thresh= 7.452E-05 alpha_mix =  0.700 |ddv_scf|^2 =  4.098E-08

      iter #   3 total cpu time :    13.3 secs   av.it.:   9.2
      thresh= 2.024E-05 alpha_mix =  0.700 |ddv_scf|^2 =  3.516E-09

      iter #   4 total cpu time :    14.0 secs   av.it.:   9.0
      thresh= 5.930E-06 alpha_mix =  0.700 |ddv_scf|^2 =  1.082E-11

      iter #   5 total cpu time :    14.6 secs   av.it.:   9.2
      thresh= 3.289E-07 alpha_mix =  0.700 |ddv_scf|^2 =  4.933E-13

     End of self-consistent calculation

     Convergence has been achieved 


     Representation #  4 modes #   5  6

     Self-consistent Calculation

      iter #   1 total cpu time :    15.3 secs   av.it.:   5.0
      thresh= 1.000E-02 alpha_mix =  0.700 |ddv_scf|^2 =  5.553E-07

      iter #   2 total cpu time :    16.0 secs   av.it.:   9.6
      thresh= 7.452E-05 alpha_mix =  0.700 |ddv_scf|^2 =  4.094E-08

      iter #   3 total cpu time :    16.7 secs   av.it.:   9.4
      thresh= 2.023E-05 alpha_mix =  0.700 |ddv_scf|^2 =  3.513E-09

      iter #   4 total cpu time :    17.5 secs   av.it.:   9.1
      thresh= 5.927E-06 alpha_mix =  0.700 |ddv_scf|^2 =  1.083E-11

      iter #   5 total cpu time :    18.1 secs   av.it.:   9.3
      thresh= 3.291E-07 alpha_mix =  0.700 |ddv_scf|^2 =  4.939E-13

     End of self-consistent calculation

     Convergence has been achieved 

     Number of q in the star =    8
     List of q in the star:
          1  -0.250000000   0.250000000  -0.250000000
          2   0.250000000  -0.250000000  -0.250000000
          3   0.250000000  -0.250000000   0.250000000
          4   0.250000000   0.250000000   0.250000000
          5  -0.250000000  -0.250000000  -0.250000000
          6  -0.250000000  -0.250000000   0.250000000
          7  -0.250000000   0.250000000   0.250000000
          8   0.250000000   0.250000000  -0.250000000

     Diagonalizing the dynamical matrix

     q = (   -0.250000000   0.250000000  -0.250000000 ) 

 **************************************************************************
     freq (    1) =       3.387663 [THz] =     113.000261 [cm-1]
     freq (    2) =       3.387663 [THz] =     113.000261 [cm-1]
     freq (    3) =       6.947202 [THz] =     231.733699 [cm-1]
     freq (    4) =      14.114270 [THz] =     470.801376 [cm-1]
     freq (    5) =      14.429320 [THz] =     481.310295 [cm-1]
     freq (    6) =      14.429320 [THz] =     481.310295 [cm-1]
 **************************************************************************

     Mode symmetry, C_3v (3m)   point group:

     freq (  1 -  2) =        113.0  [cm-1]   --> E    L_3           
     freq (  3 -  3) =        231.7  [cm-1]   --> A_1  L_1           
     freq (  4 -  4) =        470.8  [cm-1]   --> A_1  L_1           
     freq (  5 -  6) =        481.3  [cm-1]   --> E    L_3           

     Calculation of q =    0.5000000  -0.5000000   0.5000000

   Info: using nr1, nr2, nr3 values from input

   Info: using nr1, nr2, nr3 values from input

     Parallelization info
     --------------------
     sticks:   dense  smooth     PW     G-vecs:    dense   smooth      PW
     Min          63      63     27                  684      684     186
     Max          64      64     28                  688      688     189
     Sum         253     253    109                 2741     2741     749



     bravais-lattice index     =            2
     lattice parameter (alat)  =      10.3270  a.u.
     unit-cell volume          =     275.3357 (a.u.)^3
     number of atoms/cell      =            2
     number of atomic types    =            1
     number of electrons       =         8.00
     number of Kohn-Sham states=            4
     kinetic-energy cutoff     =      18.0000  Ry
     charge density cutoff     =      72.0000  Ry
     Exchange-correlation      = SLA  PW   PBE  PBE ( 1  4  3  4 0 0)

     celldm(1)=  10.327000  celldm(2)=   0.000000  celldm(3)=   0.000000
     celldm(4)=   0.000000  celldm(5)=   0.000000  celldm(6)=   0.000000

     crystal axes: (cart. coord. in units of alat)
               a(1) = (  -0.500000   0.000000   0.500000 )  
               a(2) = (   0.000000   0.500000   0.500000 )  
               a(3) = (  -0.500000   0.500000   0.000000 )  

     reciprocal axes: (cart. coord. in units 2 pi/alat)
               b(1) = ( -1.000000 -1.000000  1.000000 )  
               b(2) = (  1.000000  1.000000  1.000000 )  
               b(3) = ( -1.000000  1.000000 -1.000000 )  


     PseudoPot. # 1 for Si read from file:
     /home/max/quantum_espresso/qe-6.1/pseudo/si_pbe_v1.uspp.F.UPF.txt
     MD5 check sum: a056efeee980c13900f22a371efd63c1
     Pseudo is Ultrasoft + core correction, Zval =  4.0
     Generated by new atomic code, or converted to UPF format
     Using radial grid of  899 points,  6 beta functions with: 
                l(1) =   0
                l(2) =   0
                l(3) =   1
                l(4) =   1
                l(5) =   2
                l(6) =   2
     Q(r) pseudized with  8 coefficients,  rinner =    0.900   0.900   0.900
                                                       0.900   0.900

     atomic species   valence    mass     pseudopotential
        Si             4.00    28.08600     Si( 1.00)

     48 Sym. Ops., with inversion, found



   Cartesian axes

     site n.     atom                  positions (alat units)
         1           Si  tau(   1) = (   0.0000000   0.0000000   0.0000000  )
         2           Si  tau(   2) = (   0.2500000   0.2500000   0.2500000  )

     number of k points=    60
                       cart. coord. in units 2pi/alat
        k(    1) = (  -0.1250000   0.1250000   0.1250000), wk =   0.0468750
        k(    2) = (   0.3750000  -0.3750000   0.6250000), wk =   0.0000000
        k(    3) = (  -0.3750000   0.3750000  -0.1250000), wk =   0.0468750
        k(    4) = (   0.1250000  -0.1250000   0.3750000), wk =   0.0000000
        k(    5) = (   0.3750000  -0.3750000   0.6250000), wk =   0.0468750
        k(    6) = (   0.8750000  -0.8750000   1.1250000), wk =   0.0000000
        k(    7) = (   0.1250000  -0.1250000   0.3750000), wk =   0.0468750
        k(    8) = (   0.6250000  -0.6250000   0.8750000), wk =   0.0000000
        k(    9) = (  -0.1250000   0.6250000   0.1250000), wk =   0.0937500
        k(   10) = (   0.3750000   0.1250000   0.6250000), wk =   0.0000000
        k(   11) = (   0.6250000  -0.1250000   0.8750000), wk =   0.0937500
        k(   12) = (   1.1250000  -0.6250000   1.3750000), wk =   0.0000000
        k(   13) = (   0.3750000   0.1250000   0.6250000), wk =   0.0937500
        k(   14) = (   0.8750000  -0.3750000   1.1250000), wk =   0.0000000
        k(   15) = (  -0.1250000  -0.8750000   0.1250000), wk =   0.0937500
        k(   16) = (   0.3750000  -1.3750000   0.6250000), wk =   0.0000000
        k(   17) = (  -0.3750000   0.3750000   0.3750000), wk =   0.0468750
        k(   18) = (   0.1250000  -0.1250000   0.8750000), wk =   0.0000000
        k(   19) = (   0.3750000  -0.3750000   1.1250000), wk =   0.0468750
        k(   20) = (   0.8750000  -0.8750000   1.6250000), wk =   0.0000000
        k(   21) = (   0.1250000  -0.1250000   0.1250000), wk =   0.0156250
        k(   22) = (   0.6250000  -0.6250000   0.6250000), wk =   0.0000000
        k(   23) = (  -0.3750000  -0.3750000  -0.1250000), wk =   0.0937500
        k(   24) = (   0.1250000  -0.8750000   0.3750000), wk =   0.0000000
        k(   25) = (  -0.1250000  -0.3750000   0.3750000), wk =   0.0468750
        k(   26) = (   0.3750000  -0.8750000   0.8750000), wk =   0.0000000
        k(   27) = (   0.3750000   0.3750000   0.6250000), wk =   0.0937500
        k(   28) = (   0.8750000  -0.1250000   1.1250000), wk =   0.0000000
        k(   29) = (   0.6250000   0.3750000  -0.3750000), wk =   0.0468750
        k(   30) = (   1.1250000  -0.1250000   0.1250000), wk =   0.0000000
        k(   31) = (   0.1250000   0.1250000   0.3750000), wk =   0.0937500
        k(   32) = (   0.6250000  -0.3750000   0.8750000), wk =   0.0000000
        k(   33) = (   0.3750000   0.1250000  -0.1250000), wk =   0.0468750
        k(   34) = (   0.8750000  -0.3750000   0.3750000), wk =   0.0000000
        k(   35) = (  -0.1250000  -0.6250000  -0.1250000), wk =   0.0468750
        k(   36) = (   0.3750000  -1.1250000   0.3750000), wk =   0.0000000
        k(   37) = (   0.1250000  -0.6250000   0.1250000), wk =   0.0468750
        k(   38) = (   0.6250000  -1.1250000   0.6250000), wk =   0.0000000
        k(   39) = (   0.6250000   0.1250000   0.8750000), wk =   0.0937500
        k(   40) = (   1.1250000  -0.3750000   1.3750000), wk =   0.0000000
        k(   41) = (  -0.8750000   0.1250000   0.6250000), wk =   0.0937500
        k(   42) = (  -0.3750000  -0.3750000   1.1250000), wk =   0.0000000
        k(   43) = (   0.8750000   0.1250000  -0.6250000), wk =   0.0937500
        k(   44) = (   1.3750000  -0.3750000  -0.1250000), wk =   0.0000000
        k(   45) = (   0.3750000  -0.1250000   0.6250000), wk =   0.0937500
        k(   46) = (   0.8750000  -0.6250000   1.1250000), wk =   0.0000000
        k(   47) = (  -0.6250000  -0.1250000   0.3750000), wk =   0.0937500
        k(   48) = (  -0.1250000  -0.6250000   0.8750000), wk =   0.0000000
        k(   49) = (   0.6250000  -0.1250000  -0.3750000), wk =   0.0937500
        k(   50) = (   1.1250000  -0.6250000   0.1250000), wk =   0.0000000
        k(   51) = (  -0.1250000   0.8750000  -0.1250000), wk =   0.0468750
        k(   52) = (   0.3750000   0.3750000   0.3750000), wk =   0.0000000
        k(   53) = (   0.1250000   0.8750000   0.1250000), wk =   0.0468750
        k(   54) = (   0.6250000   0.3750000   0.6250000), wk =   0.0000000
        k(   55) = (   0.3750000  -0.3750000   0.3750000), wk =   0.0156250
        k(   56) = (   0.8750000  -0.8750000   0.8750000), wk =   0.0000000
        k(   57) = (   0.3750000   0.3750000   1.1250000), wk =   0.0937500
        k(   58) = (   0.8750000  -0.1250000   1.6250000), wk =   0.0000000
        k(   59) = (   1.1250000   0.3750000  -0.3750000), wk =   0.0468750
        k(   60) = (   1.6250000  -0.1250000   0.1250000), wk =   0.0000000

     Dense  grid:     2741 G-vectors     FFT dimensions: (  20,  20,  20)

     Estimated max dynamical RAM per process >       0.33MB

     Estimated total allocated dynamical RAM >       1.30MB

     Check: negative/imaginary core charge=   -0.000005    0.000000

     The potential is recalculated from file :
     ./_ph0/silicon.10.327.save/charge-density.dat

     Starting wfc are    8 atomic wfcs

     Band Structure Calculation
     Davidson diagonalization with overlap

     ethr =  1.25E-10,  avg # of iterations = 11.7

     total cpu time spent up to now is        1.7 secs

     End of band structure calculation

          k =-0.1250 0.1250 0.1250 (   338 PWs)   bands (ev):

    -5.6236   4.4103   5.7190   5.7190

          k = 0.3750-0.3750 0.6250 (   359 PWs)   bands (ev):

    -3.4601  -0.6616   3.7541   4.4652

          k =-0.3750 0.3750-0.1250 (   352 PWs)   bands (ev):

    -4.5981   1.4148   3.7349   5.2366

          k = 0.1250-0.1250 0.3750 (   349 PWs)   bands (ev):

    -5.0965   2.7913   4.7102   4.7753

          k = 0.3750-0.3750 0.6250 (   359 PWs)   bands (ev):

    -3.4601  -0.6616   3.7541   4.4652

          k = 0.8750-0.8750 1.1250 (   338 PWs)   bands (ev):

    -5.6236   4.4103   5.7190   5.7190

          k = 0.1250-0.1250 0.3750 (   349 PWs)   bands (ev):

    -5.0965   2.7913   4.7102   4.7753

          k = 0.6250-0.6250 0.8750 (   352 PWs)   bands (ev):

    -4.5981   1.4148   3.7349   5.2366

          k =-0.1250 0.6250 0.1250 (   349 PWs)   bands (ev):

    -4.0654   1.0784   3.3865   3.8356

          k = 0.3750 0.1250 0.6250 (   357 PWs)   bands (ev):

    -3.6507   0.2063   2.7460   4.1116

          k = 0.6250-0.1250 0.8750 (   359 PWs)   bands (ev):

    -2.4268  -0.8853   2.0354   3.1088

          k = 1.1250-0.6250 1.3750 (   352 PWs)   bands (ev):

    -4.5981   1.4148   3.7349   5.2366

          k = 0.3750 0.1250 0.6250 (   357 PWs)   bands (ev):

    -3.6507   0.2063   2.7460   4.1116

          k = 0.8750-0.3750 1.1250 (   349 PWs)   bands (ev):

    -4.0654   1.0784   3.3865   3.8356

          k =-0.1250-0.8750 0.1250 (   358 PWs)   bands (ev):

    -2.5940  -0.7880   2.6427   3.3684

          k = 0.3750-1.3750 0.6250 (   359 PWs)   bands (ev):

    -3.4601  -0.6616   3.7541   4.4652

          k =-0.3750 0.3750 0.3750 (   353 PWs)   bands (ev):

    -4.1661   0.1266   4.9299   4.9299

          k = 0.1250-0.1250 0.8750 (   358 PWs)   bands (ev):

    -2.5940  -0.7880   2.6427   3.3684

          k = 0.3750-0.3750 1.1250 (   361 PWs)   bands (ev):

    -2.9644  -0.5801   2.0931   4.1488

          k = 0.8750-0.8750 1.6250 (   349 PWs)   bands (ev):

    -4.0654   1.0784   3.3865   3.8356

          k = 0.1250-0.1250 0.1250 (   338 PWs)   bands (ev):

    -5.6236   4.4103   5.7190   5.7190

          k = 0.6250-0.6250 0.6250 (   353 PWs)   bands (ev):

    -4.1661   0.1266   4.9299   4.9299

          k =-0.3750-0.3750-0.1250 (   352 PWs)   bands (ev):

    -4.5981   1.4148   3.7349   5.2366

          k = 0.1250-0.8750 0.3750 (   359 PWs)   bands (ev):

    -2.4268  -0.8853   2.0354   3.1088

          k =-0.1250-0.3750 0.3750 (   352 PWs)   bands (ev):

    -4.5981   1.4148   3.7349   5.2366

          k = 0.3750-0.8750 0.8750 (   349 PWs)   bands (ev):

    -4.0654   1.0784   3.3865   3.8356

          k = 0.3750 0.3750 0.6250 (   359 PWs)   bands (ev):

    -3.4601  -0.6616   3.7541   4.4652

          k = 0.8750-0.1250 1.1250 (   358 PWs)   bands (ev):

    -2.5940  -0.7880   2.6427   3.3684

          k = 0.6250 0.3750-0.3750 (   359 PWs)   bands (ev):

    -3.4601  -0.6616   3.7541   4.4652

          k = 1.1250-0.1250 0.1250 (   358 PWs)   bands (ev):

    -2.5940  -0.7880   2.6427   3.3684

          k = 0.1250 0.1250 0.3750 (   349 PWs)   bands (ev):

    -5.0965   2.7913   4.7102   4.7753

          k = 0.6250-0.3750 0.8750 (   357 PWs)   bands (ev):

    -3.6507   0.2063   2.7460   4.1116

          k = 0.3750 0.1250-0.1250 (   349 PWs)   bands (ev):

    -5.0965   2.7913   4.7102   4.7753

          k = 0.8750-0.3750 0.3750 (   361 PWs)   bands (ev):

    -2.9644  -0.5801   2.0931   4.1488

          k =-0.1250-0.6250-0.1250 (   349 PWs)   bands (ev):

    -4.0654   1.0784   3.3865   3.8356

          k = 0.3750-1.1250 0.3750 (   361 PWs)   bands (ev):

    -2.9644  -0.5801   2.0931   4.1488

          k = 0.1250-0.6250 0.1250 (   349 PWs)   bands (ev):

    -4.0654   1.0784   3.3865   3.8356

          k = 0.6250-1.1250 0.6250 (   352 PWs)   bands (ev):

    -4.5981   1.4148   3.7349   5.2366

          k = 0.6250 0.1250 0.8750 (   359 PWs)   bands (ev):

    -2.4268  -0.8853   2.0354   3.1088

          k = 1.1250-0.3750 1.3750 (   357 PWs)   bands (ev):

    -3.6507   0.2063   2.7460   4.1116

          k =-0.8750 0.1250 0.6250 (   359 PWs)   bands (ev):

    -2.4268  -0.8853   2.0354   3.1088

          k =-0.3750-0.3750 1.1250 (   361 PWs)   bands (ev):

    -2.9644  -0.5801   2.0931   4.1488

          k = 0.8750 0.1250-0.6250 (   359 PWs)   bands (ev):

    -2.4268  -0.8853   2.0354   3.1088

          k = 1.3750-0.3750-0.1250 (   357 PWs)   bands (ev):

    -3.6507   0.2063   2.7460   4.1116

          k = 0.3750-0.1250 0.6250 (   357 PWs)   bands (ev):

    -3.6507   0.2063   2.7460   4.1116

          k = 0.8750-0.6250 1.1250 (   349 PWs)   bands (ev):

    -5.0965   2.7913   4.7102   4.7753

          k =-0.6250-0.1250 0.3750 (   357 PWs)   bands (ev):

    -3.6507   0.2063   2.7460   4.1116

          k =-0.1250-0.6250 0.8750 (   359 PWs)   bands (ev):

    -2.4268  -0.8853   2.0354   3.1088

          k = 0.6250-0.1250-0.3750 (   357 PWs)   bands (ev):

    -3.6507   0.2063   2.7460   4.1116

          k = 1.1250-0.6250 0.1250 (   359 PWs)   bands (ev):

    -2.4268  -0.8853   2.0354   3.1088

          k =-0.1250 0.8750-0.1250 (   358 PWs)   bands (ev):

    -2.5940  -0.7880   2.6427   3.3684

          k = 0.3750 0.3750 0.3750 (   353 PWs)   bands (ev):

    -4.1661   0.1266   4.9299   4.9299

          k = 0.1250 0.8750 0.1250 (   358 PWs)   bands (ev):

    -2.5940  -0.7880   2.6427   3.3684

          k = 0.6250 0.3750 0.6250 (   359 PWs)   bands (ev):

    -3.4601  -0.6616   3.7541   4.4652

          k = 0.3750-0.3750 0.3750 (   353 PWs)   bands (ev):

    -4.1661   0.1266   4.9299   4.9299

          k = 0.8750-0.8750 0.8750 (   338 PWs)   bands (ev):

    -5.6236   4.4103   5.7190   5.7190

          k = 0.3750 0.3750 1.1250 (   361 PWs)   bands (ev):

    -2.9644  -0.5801   2.0931   4.1488

          k = 0.8750-0.1250 1.6250 (   359 PWs)   bands (ev):

    -2.4268  -0.8853   2.0354   3.1088

          k = 1.1250 0.3750-0.3750 (   361 PWs)   bands (ev):

    -2.9644  -0.5801   2.0931   4.1488

          k = 1.6250-0.1250 0.1250 (   349 PWs)   bands (ev):

    -5.0965   2.7913   4.7102   4.7753

     highest occupied level (ev):     5.7190

     Writing output data file silicon.10.327.save

                                                                                

     bravais-lattice index     =            2
     lattice parameter (alat)  =      10.3270  a.u.
     unit-cell volume          =     275.3357 (a.u.)^3
     number of atoms/cell      =            2
     number of atomic types    =            1
     kinetic-energy cut-off    =      18.0000  Ry
     charge density cut-off    =      72.0000  Ry
     convergence threshold     =      1.0E-12
     beta                      =       0.7000
     number of iterations used =            4
     Exchange-correlation      = SLA  PW   PBE  PBE ( 1  4  3  4 0 0)


     celldm(1)=   10.32700  celldm(2)=    0.00000  celldm(3)=    0.00000
     celldm(4)=    0.00000  celldm(5)=    0.00000  celldm(6)=    0.00000

     crystal axes: (cart. coord. in units of alat)
               a(1) = ( -0.5000  0.0000  0.5000 )  
               a(2) = (  0.0000  0.5000  0.5000 )  
               a(3) = ( -0.5000  0.5000  0.0000 )  

     reciprocal axes: (cart. coord. in units 2 pi/alat)
               b(1) = ( -1.0000 -1.0000  1.0000 )  
               b(2) = (  1.0000  1.0000  1.0000 )  
               b(3) = ( -1.0000  1.0000 -1.0000 )  


     Atoms inside the unit cell: 

     Cartesian axes

     site n.  atom      mass           positions (alat units)
        1     Si  28.0860   tau(    1) = (    0.00000    0.00000    0.00000  )
        2     Si  28.0860   tau(    2) = (    0.25000    0.25000    0.25000  )

     Computing dynamical matrix for 
                    q = (   0.5000000  -0.5000000   0.5000000 )

     13 Sym.Ops. (with q -> -q+G )


     G cutoff =  194.5007  (    685 G-vectors)     FFT grid: ( 20, 20, 20)
     number of k points=    60

     PseudoPot. # 1 for Si read from file:
     /home/max/quantum_espresso/qe-6.1/pseudo/si_pbe_v1.uspp.F.UPF.txt
     MD5 check sum: a056efeee980c13900f22a371efd63c1
     Pseudo is Ultrasoft + core correction, Zval =  4.0
     Generated by new atomic code, or converted to UPF format
     Using radial grid of  899 points,  6 beta functions with: 
                l(1) =   0
                l(2) =   0
                l(3) =   1
                l(4) =   1
                l(5) =   2
                l(6) =   2
     Q(r) pseudized with  8 coefficients,  rinner =    0.900   0.900   0.900
                                                       0.900   0.900


     Atomic displacements:
     There are   4 irreducible representations

     Representation     1      1 modes -  To be done

     Representation     2      1 modes -  To be done

     Representation     3      2 modes -  To be done

     Representation     4      2 modes -  To be done



     Alpha used in Ewald sum =   0.7000
     PHONON       :    17.01s CPU        18.97s WALL



     Representation #  1 mode #   1

     Self-consistent Calculation

      iter #   1 total cpu time :    19.3 secs   av.it.:   4.8
      thresh= 1.000E-02 alpha_mix =  0.700 |ddv_scf|^2 =  2.485E-05

      iter #   2 total cpu time :    19.4 secs   av.it.:   8.3
      thresh= 4.985E-04 alpha_mix =  0.700 |ddv_scf|^2 =  2.210E-05

      iter #   3 total cpu time :    19.6 secs   av.it.:   7.4
      thresh= 4.701E-04 alpha_mix =  0.700 |ddv_scf|^2 =  4.187E-08

      iter #   4 total cpu time :    19.7 secs   av.it.:   7.5
      thresh= 2.046E-05 alpha_mix =  0.700 |ddv_scf|^2 =  1.389E-10

      iter #   5 total cpu time :    19.9 secs   av.it.:   7.9
      thresh= 1.178E-06 alpha_mix =  0.700 |ddv_scf|^2 =  3.665E-12

      iter #   6 total cpu time :    20.1 secs   av.it.:   7.9
      thresh= 1.914E-07 alpha_mix =  0.700 |ddv_scf|^2 =  5.654E-14

     End of self-consistent calculation

     Convergence has been achieved 


     Representation #  2 mode #   2

     Self-consistent Calculation

      iter #   1 total cpu time :    20.2 secs   av.it.:   5.6
      thresh= 1.000E-02 alpha_mix =  0.700 |ddv_scf|^2 =  3.454E-04

      iter #   2 total cpu time :    20.4 secs   av.it.:   8.3
      thresh= 1.859E-03 alpha_mix =  0.700 |ddv_scf|^2 =  1.064E-03

      iter #   3 total cpu time :    20.6 secs   av.it.:   7.1
      thresh= 3.262E-03 alpha_mix =  0.700 |ddv_scf|^2 =  1.134E-07

      iter #   4 total cpu time :    20.7 secs   av.it.:   8.1
      thresh= 3.368E-05 alpha_mix =  0.700 |ddv_scf|^2 =  7.280E-09

      iter #   5 total cpu time :    20.9 secs   av.it.:   8.4
      thresh= 8.532E-06 alpha_mix =  0.700 |ddv_scf|^2 =  1.293E-10

      iter #   6 total cpu time :    21.1 secs   av.it.:   8.2
      thresh= 1.137E-06 alpha_mix =  0.700 |ddv_scf|^2 =  2.062E-12

      iter #   7 total cpu time :    21.4 secs   av.it.:   7.8
      thresh= 1.436E-07 alpha_mix =  0.700 |ddv_scf|^2 =  3.126E-15

     End of self-consistent calculation

     Convergence has been achieved 


     Representation #  3 modes #   3  4

     Self-consistent Calculation

      iter #   1 total cpu time :    21.7 secs   av.it.:   4.7
      thresh= 1.000E-02 alpha_mix =  0.700 |ddv_scf|^2 =  3.030E-07

      iter #   2 total cpu time :    22.0 secs   av.it.:   9.1
      thresh= 5.504E-05 alpha_mix =  0.700 |ddv_scf|^2 =  2.498E-08

      iter #   3 total cpu time :    22.4 secs   av.it.:   8.4
      thresh= 1.580E-05 alpha_mix =  0.700 |ddv_scf|^2 =  4.909E-10

      iter #   4 total cpu time :    22.7 secs   av.it.:   8.9
      thresh= 2.216E-06 alpha_mix =  0.700 |ddv_scf|^2 =  6.189E-12

      iter #   5 total cpu time :    23.0 secs   av.it.:   8.7
      thresh= 2.488E-07 alpha_mix =  0.700 |ddv_scf|^2 =  3.226E-14

     End of self-consistent calculation

     Convergence has been achieved 


     Representation #  4 modes #   5  6

     Self-consistent Calculation

      iter #   1 total cpu time :    23.5 secs   av.it.:   5.0
      thresh= 1.000E-02 alpha_mix =  0.700 |ddv_scf|^2 =  9.788E-07

      iter #   2 total cpu time :    23.8 secs   av.it.:   9.5
      thresh= 9.893E-05 alpha_mix =  0.700 |ddv_scf|^2 =  7.658E-08

      iter #   3 total cpu time :    24.2 secs   av.it.:   9.3
      thresh= 2.767E-05 alpha_mix =  0.700 |ddv_scf|^2 =  4.899E-09

      iter #   4 total cpu time :    24.5 secs   av.it.:   8.4
      thresh= 6.999E-06 alpha_mix =  0.700 |ddv_scf|^2 =  6.588E-12

      iter #   5 total cpu time :    24.9 secs   av.it.:   8.8
      thresh= 2.567E-07 alpha_mix =  0.700 |ddv_scf|^2 =  2.280E-14

     End of self-consistent calculation

     Convergence has been achieved 

     Number of q in the star =    4
     List of q in the star:
          1   0.500000000  -0.500000000   0.500000000
          2   0.500000000   0.500000000   0.500000000
          3  -0.500000000   0.500000000   0.500000000
          4   0.500000000   0.500000000  -0.500000000

     Diagonalizing the dynamical matrix

     q = (    0.500000000  -0.500000000   0.500000000 ) 

 **************************************************************************
     freq (    1) =       4.542114 [THz] =     151.508617 [cm-1]
     freq (    2) =       4.542114 [THz] =     151.508617 [cm-1]
     freq (    3) =      11.552219 [THz] =     385.340546 [cm-1]
     freq (    4) =      12.165111 [THz] =     405.784416 [cm-1]
     freq (    5) =      14.443808 [THz] =     481.793565 [cm-1]
     freq (    6) =      14.443808 [THz] =     481.793565 [cm-1]
 **************************************************************************

     Calculation of q =    0.0000000   0.5000000   0.0000000

   Info: using nr1, nr2, nr3 values from input

   Info: using nr1, nr2, nr3 values from input

     Parallelization info
     --------------------
     sticks:   dense  smooth     PW     G-vecs:    dense   smooth      PW
     Min          63      63     27                  684      684     175
     Max          64      64     28                  688      688     176
     Sum         253     253    109                 2741     2741     701



     bravais-lattice index     =            2
     lattice parameter (alat)  =      10.3270  a.u.
     unit-cell volume          =     275.3357 (a.u.)^3
     number of atoms/cell      =            2
     number of atomic types    =            1
     number of electrons       =         8.00
     number of Kohn-Sham states=            4
     kinetic-energy cutoff     =      18.0000  Ry
     charge density cutoff     =      72.0000  Ry
     Exchange-correlation      = SLA  PW   PBE  PBE ( 1  4  3  4 0 0)

     celldm(1)=  10.327000  celldm(2)=   0.000000  celldm(3)=   0.000000
     celldm(4)=   0.000000  celldm(5)=   0.000000  celldm(6)=   0.000000

     crystal axes: (cart. coord. in units of alat)
               a(1) = (  -0.500000   0.000000   0.500000 )  
               a(2) = (   0.000000   0.500000   0.500000 )  
               a(3) = (  -0.500000   0.500000   0.000000 )  

     reciprocal axes: (cart. coord. in units 2 pi/alat)
               b(1) = ( -1.000000 -1.000000  1.000000 )  
               b(2) = (  1.000000  1.000000  1.000000 )  
               b(3) = ( -1.000000  1.000000 -1.000000 )  


     PseudoPot. # 1 for Si read from file:
     /home/max/quantum_espresso/qe-6.1/pseudo/si_pbe_v1.uspp.F.UPF.txt
     MD5 check sum: a056efeee980c13900f22a371efd63c1
     Pseudo is Ultrasoft + core correction, Zval =  4.0
     Generated by new atomic code, or converted to UPF format
     Using radial grid of  899 points,  6 beta functions with: 
                l(1) =   0
                l(2) =   0
                l(3) =   1
                l(4) =   1
                l(5) =   2
                l(6) =   2
     Q(r) pseudized with  8 coefficients,  rinner =    0.900   0.900   0.900
                                                       0.900   0.900

     atomic species   valence    mass     pseudopotential
        Si             4.00    28.08600     Si( 1.00)

     48 Sym. Ops., with inversion, found



   Cartesian axes

     site n.     atom                  positions (alat units)
         1           Si  tau(   1) = (   0.0000000   0.0000000   0.0000000  )
         2           Si  tau(   2) = (   0.2500000   0.2500000   0.2500000  )

     number of k points=    80
                       cart. coord. in units 2pi/alat
        k(    1) = (  -0.1250000   0.1250000   0.1250000), wk =   0.0312500
        k(    2) = (  -0.1250000   0.6250000   0.1250000), wk =   0.0000000
        k(    3) = (  -0.3750000   0.3750000  -0.1250000), wk =   0.0625000
        k(    4) = (  -0.3750000   0.8750000  -0.1250000), wk =   0.0000000
        k(    5) = (   0.3750000  -0.3750000   0.6250000), wk =   0.0625000
        k(    6) = (   0.3750000   0.1250000   0.6250000), wk =   0.0000000
        k(    7) = (   0.1250000  -0.1250000   0.3750000), wk =   0.0625000
        k(    8) = (   0.1250000   0.3750000   0.3750000), wk =   0.0000000
        k(    9) = (  -0.1250000   0.6250000   0.1250000), wk =   0.0312500
        k(   10) = (  -0.1250000   1.1250000   0.1250000), wk =   0.0000000
        k(   11) = (   0.6250000  -0.1250000   0.8750000), wk =   0.0625000
        k(   12) = (   0.6250000   0.3750000   0.8750000), wk =   0.0000000
        k(   13) = (   0.3750000   0.1250000   0.6250000), wk =   0.0625000
        k(   14) = (   0.3750000   0.6250000   0.6250000), wk =   0.0000000
        k(   15) = (  -0.1250000  -0.8750000   0.1250000), wk =   0.0312500
        k(   16) = (  -0.1250000  -0.3750000   0.1250000), wk =   0.0000000
        k(   17) = (  -0.3750000   0.3750000   0.3750000), wk =   0.0312500
        k(   18) = (  -0.3750000   0.8750000   0.3750000), wk =   0.0000000
        k(   19) = (   0.3750000  -0.3750000   1.1250000), wk =   0.0625000
        k(   20) = (   0.3750000   0.1250000   1.1250000), wk =   0.0000000
        k(   21) = (  -0.1250000  -0.1250000   0.1250000), wk =   0.0312500
        k(   22) = (  -0.1250000   0.3750000   0.1250000), wk =   0.0000000
        k(   23) = (   0.1250000  -0.3750000   0.3750000), wk =   0.0625000
        k(   24) = (   0.1250000   0.1250000   0.3750000), wk =   0.0000000
        k(   25) = (   0.3750000  -0.1250000   0.3750000), wk =   0.0312500
        k(   26) = (   0.3750000   0.3750000   0.3750000), wk =   0.0000000
        k(   27) = (   0.3750000   0.1250000   0.3750000), wk =   0.0312500
        k(   28) = (   0.3750000   0.6250000   0.3750000), wk =   0.0000000
        k(   29) = (  -0.6250000   0.3750000  -0.3750000), wk =   0.0625000
        k(   30) = (  -0.6250000   0.8750000  -0.3750000), wk =   0.0000000
        k(   31) = (  -0.3750000   0.6250000  -0.3750000), wk =   0.0312500
        k(   32) = (  -0.3750000   1.1250000  -0.3750000), wk =   0.0000000
        k(   33) = (  -0.3750000  -0.6250000  -0.3750000), wk =   0.0312500
        k(   34) = (  -0.3750000  -0.1250000  -0.3750000), wk =   0.0000000
        k(   35) = (  -0.3750000   0.1250000  -0.1250000), wk =   0.0625000
        k(   36) = (  -0.3750000   0.6250000  -0.1250000), wk =   0.0000000
        k(   37) = (  -0.1250000   0.3750000  -0.1250000), wk =   0.0312500
        k(   38) = (  -0.1250000   0.8750000  -0.1250000), wk =   0.0000000
        k(   39) = (  -0.1250000  -0.3750000  -0.1250000), wk =   0.0312500
        k(   40) = (  -0.1250000   0.1250000  -0.1250000), wk =   0.0000000
        k(   41) = (  -0.1250000  -0.6250000   0.1250000), wk =   0.0312500
        k(   42) = (  -0.1250000  -0.1250000   0.1250000), wk =   0.0000000
        k(   43) = (   0.6250000  -0.1250000  -0.1250000), wk =   0.0625000
        k(   44) = (   0.6250000   0.3750000  -0.1250000), wk =   0.0000000
        k(   45) = (   0.6250000   0.1250000   0.1250000), wk =   0.0625000
        k(   46) = (   0.6250000   0.6250000   0.1250000), wk =   0.0000000
        k(   47) = (  -0.8750000   0.1250000  -0.6250000), wk =   0.0625000
        k(   48) = (  -0.8750000   0.6250000  -0.6250000), wk =   0.0000000
        k(   49) = (  -0.1250000   0.6250000  -0.8750000), wk =   0.0625000
        k(   50) = (  -0.1250000   1.1250000  -0.8750000), wk =   0.0000000
        k(   51) = (  -0.1250000   0.8750000  -0.6250000), wk =   0.0625000
        k(   52) = (  -0.1250000   1.3750000  -0.6250000), wk =   0.0000000
        k(   53) = (  -0.1250000  -0.8750000  -0.6250000), wk =   0.0625000
        k(   54) = (  -0.1250000  -0.3750000  -0.6250000), wk =   0.0000000
        k(   55) = (   0.8750000  -0.6250000   0.1250000), wk =   0.0625000
        k(   56) = (   0.8750000  -0.1250000   0.1250000), wk =   0.0000000
        k(   57) = (  -0.6250000  -0.1250000  -0.3750000), wk =   0.0625000
        k(   58) = (  -0.6250000   0.3750000  -0.3750000), wk =   0.0000000
        k(   59) = (   0.1250000   0.3750000  -0.6250000), wk =   0.0625000
        k(   60) = (   0.1250000   0.8750000  -0.6250000), wk =   0.0000000
        k(   61) = (   0.1250000   0.6250000  -0.3750000), wk =   0.0625000
        k(   62) = (   0.1250000   1.1250000  -0.3750000), wk =   0.0000000
        k(   63) = (   0.1250000  -0.6250000  -0.3750000), wk =   0.0625000
        k(   64) = (   0.1250000  -0.1250000  -0.3750000), wk =   0.0000000
        k(   65) = (   0.6250000  -0.3750000  -0.1250000), wk =   0.0625000
        k(   66) = (   0.6250000   0.1250000  -0.1250000), wk =   0.0000000
        k(   67) = (  -0.1250000   0.8750000   0.1250000), wk =   0.0312500
        k(   68) = (  -0.1250000   1.3750000   0.1250000), wk =   0.0000000
        k(   69) = (  -0.8750000  -0.1250000  -0.1250000), wk =   0.0625000
        k(   70) = (  -0.8750000   0.3750000  -0.1250000), wk =   0.0000000
        k(   71) = (  -0.8750000   0.1250000   0.1250000), wk =   0.0625000
        k(   72) = (  -0.8750000   0.6250000   0.1250000), wk =   0.0000000
        k(   73) = (  -0.3750000  -0.3750000   0.3750000), wk =   0.0312500
        k(   74) = (  -0.3750000   0.1250000   0.3750000), wk =   0.0000000
        k(   75) = (  -1.1250000   0.3750000  -0.3750000), wk =   0.0625000
        k(   76) = (  -1.1250000   0.8750000  -0.3750000), wk =   0.0000000
        k(   77) = (  -0.3750000   1.1250000  -0.3750000), wk =   0.0312500
        k(   78) = (  -0.3750000   1.6250000  -0.3750000), wk =   0.0000000
        k(   79) = (  -0.3750000  -1.1250000  -0.3750000), wk =   0.0312500
        k(   80) = (  -0.3750000  -0.6250000  -0.3750000), wk =   0.0000000

     Dense  grid:     2741 G-vectors     FFT dimensions: (  20,  20,  20)

     Estimated max dynamical RAM per process >       0.33MB

     Estimated total allocated dynamical RAM >       1.30MB

     Check: negative/imaginary core charge=   -0.000005    0.000000

     The potential is recalculated from file :
     ./_ph0/silicon.10.327.save/charge-density.dat

     Starting wfc are    8 atomic wfcs

     Band Structure Calculation
     Davidson diagonalization with overlap

     ethr =  1.25E-10,  avg # of iterations = 11.7

     total cpu time spent up to now is        2.6 secs

     End of band structure calculation

          k =-0.1250 0.1250 0.1250 (   338 PWs)   bands (ev):

    -5.6236   4.4103   5.7190   5.7190

          k =-0.1250 0.6250 0.1250 (   349 PWs)   bands (ev):

    -4.0654   1.0784   3.3865   3.8356

          k =-0.3750 0.3750-0.1250 (   352 PWs)   bands (ev):

    -4.5981   1.4148   3.7349   5.2366

          k =-0.3750 0.8750-0.1250 (   359 PWs)   bands (ev):

    -2.4268  -0.8853   2.0354   3.1088

          k = 0.3750-0.3750 0.6250 (   359 PWs)   bands (ev):

    -3.4601  -0.6616   3.7541   4.4652

          k = 0.3750 0.1250 0.6250 (   357 PWs)   bands (ev):

    -3.6507   0.2063   2.7460   4.1116

          k = 0.1250-0.1250 0.3750 (   349 PWs)   bands (ev):

    -5.0965   2.7913   4.7102   4.7753

          k = 0.1250 0.3750 0.3750 (   352 PWs)   bands (ev):

    -4.5981   1.4148   3.7349   5.2366

          k =-0.1250 0.6250 0.1250 (   349 PWs)   bands (ev):

    -4.0654   1.0784   3.3865   3.8356

          k =-0.1250 1.1250 0.1250 (   358 PWs)   bands (ev):

    -2.5940  -0.7880   2.6427   3.3684

          k = 0.6250-0.1250 0.8750 (   359 PWs)   bands (ev):

    -2.4268  -0.8853   2.0354   3.1088

          k = 0.6250 0.3750 0.8750 (   357 PWs)   bands (ev):

    -3.6507   0.2063   2.7460   4.1116

          k = 0.3750 0.1250 0.6250 (   357 PWs)   bands (ev):

    -3.6507   0.2063   2.7460   4.1116

          k = 0.3750 0.6250 0.6250 (   359 PWs)   bands (ev):

    -3.4601  -0.6616   3.7541   4.4652

          k =-0.1250-0.8750 0.1250 (   358 PWs)   bands (ev):

    -2.5940  -0.7880   2.6427   3.3684

          k =-0.1250-0.3750 0.1250 (   349 PWs)   bands (ev):

    -5.0965   2.7913   4.7102   4.7753

          k =-0.3750 0.3750 0.3750 (   353 PWs)   bands (ev):

    -4.1661   0.1266   4.9299   4.9299

          k =-0.3750 0.8750 0.3750 (   361 PWs)   bands (ev):

    -2.9644  -0.5801   2.0931   4.1488

          k = 0.3750-0.3750 1.1250 (   361 PWs)   bands (ev):

    -2.9644  -0.5801   2.0931   4.1488

          k = 0.3750 0.1250 1.1250 (   359 PWs)   bands (ev):

    -2.4268  -0.8853   2.0354   3.1088

          k =-0.1250-0.1250 0.1250 (   338 PWs)   bands (ev):

    -5.6236   4.4103   5.7190   5.7190

          k =-0.1250 0.3750 0.1250 (   349 PWs)   bands (ev):

    -5.0965   2.7913   4.7102   4.7753

          k = 0.1250-0.3750 0.3750 (   352 PWs)   bands (ev):

    -4.5981   1.4148   3.7349   5.2366

          k = 0.1250 0.1250 0.3750 (   349 PWs)   bands (ev):

    -5.0965   2.7913   4.7102   4.7753

          k = 0.3750-0.1250 0.3750 (   352 PWs)   bands (ev):

    -4.5981   1.4148   3.7349   5.2366

          k = 0.3750 0.3750 0.3750 (   353 PWs)   bands (ev):

    -4.1661   0.1266   4.9299   4.9299

          k = 0.3750 0.1250 0.3750 (   352 PWs)   bands (ev):

    -4.5981   1.4148   3.7349   5.2366

          k = 0.3750 0.6250 0.3750 (   359 PWs)   bands (ev):

    -3.4601  -0.6616   3.7541   4.4652

          k =-0.6250 0.3750-0.3750 (   359 PWs)   bands (ev):

    -3.4601  -0.6616   3.7541   4.4652

          k =-0.6250 0.8750-0.3750 (   357 PWs)   bands (ev):

    -3.6507   0.2063   2.7460   4.1116

          k =-0.3750 0.6250-0.3750 (   359 PWs)   bands (ev):

    -3.4601  -0.6616   3.7541   4.4652

          k =-0.3750 1.1250-0.3750 (   361 PWs)   bands (ev):

    -2.9644  -0.5801   2.0931   4.1488

          k =-0.3750-0.6250-0.3750 (   359 PWs)   bands (ev):

    -3.4601  -0.6616   3.7541   4.4652

          k =-0.3750-0.1250-0.3750 (   352 PWs)   bands (ev):

    -4.5981   1.4148   3.7349   5.2366

          k =-0.3750 0.1250-0.1250 (   349 PWs)   bands (ev):

    -5.0965   2.7913   4.7102   4.7753

          k =-0.3750 0.6250-0.1250 (   357 PWs)   bands (ev):

    -3.6507   0.2063   2.7460   4.1116

          k =-0.1250 0.3750-0.1250 (   349 PWs)   bands (ev):

    -5.0965   2.7913   4.7102   4.7753

          k =-0.1250 0.8750-0.1250 (   358 PWs)   bands (ev):

    -2.5940  -0.7880   2.6427   3.3684

          k =-0.1250-0.3750-0.1250 (   349 PWs)   bands (ev):

    -5.0965   2.7913   4.7102   4.7753

          k =-0.1250 0.1250-0.1250 (   338 PWs)   bands (ev):

    -5.6236   4.4103   5.7190   5.7190

          k =-0.1250-0.6250 0.1250 (   349 PWs)   bands (ev):

    -4.0654   1.0784   3.3865   3.8356

          k =-0.1250-0.1250 0.1250 (   338 PWs)   bands (ev):

    -5.6236   4.4103   5.7190   5.7190

          k = 0.6250-0.1250-0.1250 (   349 PWs)   bands (ev):

    -4.0654   1.0784   3.3865   3.8356

          k = 0.6250 0.3750-0.1250 (   357 PWs)   bands (ev):

    -3.6507   0.2063   2.7460   4.1116

          k = 0.6250 0.1250 0.1250 (   349 PWs)   bands (ev):

    -4.0654   1.0784   3.3865   3.8356

          k = 0.6250 0.6250 0.1250 (   361 PWs)   bands (ev):

    -2.9644  -0.5801   2.0931   4.1488

          k =-0.8750 0.1250-0.6250 (   359 PWs)   bands (ev):

    -2.4268  -0.8853   2.0354   3.1088

          k =-0.8750 0.6250-0.6250 (   352 PWs)   bands (ev):

    -4.5981   1.4148   3.7349   5.2366

          k =-0.1250 0.6250-0.8750 (   359 PWs)   bands (ev):

    -2.4268  -0.8853   2.0354   3.1088

          k =-0.1250 1.1250-0.8750 (   358 PWs)   bands (ev):

    -2.5940  -0.7880   2.6427   3.3684

          k =-0.1250 0.8750-0.6250 (   359 PWs)   bands (ev):

    -2.4268  -0.8853   2.0354   3.1088

          k =-0.1250 1.3750-0.6250 (   361 PWs)   bands (ev):

    -2.9644  -0.5801   2.0931   4.1488

          k =-0.1250-0.8750-0.6250 (   359 PWs)   bands (ev):

    -2.4268  -0.8853   2.0354   3.1088

          k =-0.1250-0.3750-0.6250 (   357 PWs)   bands (ev):

    -3.6507   0.2063   2.7460   4.1116

          k = 0.8750-0.6250 0.1250 (   359 PWs)   bands (ev):

    -2.4268  -0.8853   2.0354   3.1088

          k = 0.8750-0.1250 0.1250 (   358 PWs)   bands (ev):

    -2.5940  -0.7880   2.6427   3.3684

          k =-0.6250-0.1250-0.3750 (   357 PWs)   bands (ev):

    -3.6507   0.2063   2.7460   4.1116

          k =-0.6250 0.3750-0.3750 (   359 PWs)   bands (ev):

    -3.4601  -0.6616   3.7541   4.4652

          k = 0.1250 0.3750-0.6250 (   357 PWs)   bands (ev):

    -3.6507   0.2063   2.7460   4.1116

          k = 0.1250 0.8750-0.6250 (   359 PWs)   bands (ev):

    -2.4268  -0.8853   2.0354   3.1088

          k = 0.1250 0.6250-0.3750 (   357 PWs)   bands (ev):

    -3.6507   0.2063   2.7460   4.1116

          k = 0.1250 1.1250-0.3750 (   359 PWs)   bands (ev):

    -2.4268  -0.8853   2.0354   3.1088

          k = 0.1250-0.6250-0.3750 (   357 PWs)   bands (ev):

    -3.6507   0.2063   2.7460   4.1116

          k = 0.1250-0.1250-0.3750 (   349 PWs)   bands (ev):

    -5.0965   2.7913   4.7102   4.7753

          k = 0.6250-0.3750-0.1250 (   357 PWs)   bands (ev):

    -3.6507   0.2063   2.7460   4.1116

          k = 0.6250 0.1250-0.1250 (   349 PWs)   bands (ev):

    -4.0654   1.0784   3.3865   3.8356

          k =-0.1250 0.8750 0.1250 (   358 PWs)   bands (ev):

    -2.5940  -0.7880   2.6427   3.3684

          k =-0.1250 1.3750 0.1250 (   349 PWs)   bands (ev):

    -4.0654   1.0784   3.3865   3.8356

          k =-0.8750-0.1250-0.1250 (   358 PWs)   bands (ev):

    -2.5940  -0.7880   2.6427   3.3684

          k =-0.8750 0.3750-0.1250 (   359 PWs)   bands (ev):

    -2.4268  -0.8853   2.0354   3.1088

          k =-0.8750 0.1250 0.1250 (   358 PWs)   bands (ev):

    -2.5940  -0.7880   2.6427   3.3684

          k =-0.8750 0.6250 0.1250 (   359 PWs)   bands (ev):

    -2.4268  -0.8853   2.0354   3.1088

          k =-0.3750-0.3750 0.3750 (   353 PWs)   bands (ev):

    -4.1661   0.1266   4.9299   4.9299

          k =-0.3750 0.1250 0.3750 (   352 PWs)   bands (ev):

    -4.5981   1.4148   3.7349   5.2366

          k =-1.1250 0.3750-0.3750 (   361 PWs)   bands (ev):

    -2.9644  -0.5801   2.0931   4.1488

          k =-1.1250 0.8750-0.3750 (   349 PWs)   bands (ev):

    -4.0654   1.0784   3.3865   3.8356

          k =-0.3750 1.1250-0.3750 (   361 PWs)   bands (ev):

    -2.9644  -0.5801   2.0931   4.1488

          k =-0.3750 1.6250-0.3750 (   353 PWs)   bands (ev):

    -4.1661   0.1266   4.9299   4.9299

          k =-0.3750-1.1250-0.3750 (   361 PWs)   bands (ev):

    -2.9644  -0.5801   2.0931   4.1488

          k =-0.3750-0.6250-0.3750 (   359 PWs)   bands (ev):

    -3.4601  -0.6616   3.7541   4.4652

     highest occupied level (ev):     5.7190

     Writing output data file silicon.10.327.save

                                                                                

     bravais-lattice index     =            2
     lattice parameter (alat)  =      10.3270  a.u.
     unit-cell volume          =     275.3357 (a.u.)^3
     number of atoms/cell      =            2
     number of atomic types    =            1
     kinetic-energy cut-off    =      18.0000  Ry
     charge density cut-off    =      72.0000  Ry
     convergence threshold     =      1.0E-12
     beta                      =       0.7000
     number of iterations used =            4
     Exchange-correlation      = SLA  PW   PBE  PBE ( 1  4  3  4 0 0)


     celldm(1)=   10.32700  celldm(2)=    0.00000  celldm(3)=    0.00000
     celldm(4)=    0.00000  celldm(5)=    0.00000  celldm(6)=    0.00000

     crystal axes: (cart. coord. in units of alat)
               a(1) = ( -0.5000  0.0000  0.5000 )  
               a(2) = (  0.0000  0.5000  0.5000 )  
               a(3) = ( -0.5000  0.5000  0.0000 )  

     reciprocal axes: (cart. coord. in units 2 pi/alat)
               b(1) = ( -1.0000 -1.0000  1.0000 )  
               b(2) = (  1.0000  1.0000  1.0000 )  
               b(3) = ( -1.0000  1.0000 -1.0000 )  


     Atoms inside the unit cell: 

     Cartesian axes

     site n.  atom      mass           positions (alat units)
        1     Si  28.0860   tau(    1) = (    0.00000    0.00000    0.00000  )
        2     Si  28.0860   tau(    2) = (    0.25000    0.25000    0.25000  )

     Computing dynamical matrix for 
                    q = (   0.0000000   0.5000000   0.0000000 )

      8 Sym.Ops. (no q -> -q+G )


     G cutoff =  194.5007  (    685 G-vectors)     FFT grid: ( 20, 20, 20)
     number of k points=    80

     PseudoPot. # 1 for Si read from file:
     /home/max/quantum_espresso/qe-6.1/pseudo/si_pbe_v1.uspp.F.UPF.txt
     MD5 check sum: a056efeee980c13900f22a371efd63c1
     Pseudo is Ultrasoft + core correction, Zval =  4.0
     Generated by new atomic code, or converted to UPF format
     Using radial grid of  899 points,  6 beta functions with: 
                l(1) =   0
                l(2) =   0
                l(3) =   1
                l(4) =   1
                l(5) =   2
                l(6) =   2
     Q(r) pseudized with  8 coefficients,  rinner =    0.900   0.900   0.900
                                                       0.900   0.900

     Mode symmetry, C_4v (4mm)  point group:


     Atomic displacements:
     There are   4 irreducible representations

     Representation     1      1 modes -A_1  G_1 D_1  To be done

     Representation     2      1 modes -B_2  G_4 D_2'  To be done

     Representation     3      2 modes -E    G_5 D_5  To be done

     Representation     4      2 modes -E    G_5 D_5  To be done



     Alpha used in Ewald sum =   0.7000
     PHONON       :    23.33s CPU        26.04s WALL



     Representation #  1 mode #   1

     Self-consistent Calculation

      iter #   1 total cpu time :    26.2 secs   av.it.:   5.8
      thresh= 1.000E-02 alpha_mix =  0.700 |ddv_scf|^2 =  2.976E-03

      iter #   2 total cpu time :    26.4 secs   av.it.:   7.7
      thresh= 5.456E-03 alpha_mix =  0.700 |ddv_scf|^2 =  3.912E-02

      iter #   3 total cpu time :    26.6 secs   av.it.:   6.8
      thresh= 1.000E-02 alpha_mix =  0.700 |ddv_scf|^2 =  1.381E-07

      iter #   4 total cpu time :    26.8 secs   av.it.:   8.2
      thresh= 3.716E-05 alpha_mix =  0.700 |ddv_scf|^2 =  1.246E-08

      iter #   5 total cpu time :    27.0 secs   av.it.:   7.8
      thresh= 1.116E-05 alpha_mix =  0.700 |ddv_scf|^2 =  7.406E-10

      iter #   6 total cpu time :    27.4 secs   av.it.:   7.8
      thresh= 2.721E-06 alpha_mix =  0.700 |ddv_scf|^2 =  2.663E-12

      iter #   7 total cpu time :    27.6 secs   av.it.:   8.0
      thresh= 1.632E-07 alpha_mix =  0.700 |ddv_scf|^2 =  5.279E-13

     End of self-consistent calculation

     Convergence has been achieved 


     Representation #  2 mode #   2

     Self-consistent Calculation

      iter #   1 total cpu time :    27.8 secs   av.it.:   4.9
      thresh= 1.000E-02 alpha_mix =  0.700 |ddv_scf|^2 =  5.510E-06

      iter #   2 total cpu time :    28.0 secs   av.it.:   8.7
      thresh= 2.347E-04 alpha_mix =  0.700 |ddv_scf|^2 =  1.331E-06

      iter #   3 total cpu time :    28.2 secs   av.it.:   8.6
      thresh= 1.154E-04 alpha_mix =  0.700 |ddv_scf|^2 =  4.246E-08

      iter #   4 total cpu time :    28.4 secs   av.it.:   8.2
      thresh= 2.061E-05 alpha_mix =  0.700 |ddv_scf|^2 =  6.869E-10

      iter #   5 total cpu time :    28.7 secs   av.it.:   8.5
      thresh= 2.621E-06 alpha_mix =  0.700 |ddv_scf|^2 =  6.851E-12

      iter #   6 total cpu time :    28.9 secs   av.it.:   8.0
      thresh= 2.617E-07 alpha_mix =  0.700 |ddv_scf|^2 =  6.934E-14

     End of self-consistent calculation

     Convergence has been achieved 


     Representation #  3 modes #   3  4

     Self-consistent Calculation

      iter #   1 total cpu time :    29.4 secs   av.it.:   5.0
      thresh= 1.000E-02 alpha_mix =  0.700 |ddv_scf|^2 =  1.024E-06

      iter #   2 total cpu time :    29.9 secs   av.it.:   9.7
      thresh= 1.012E-04 alpha_mix =  0.700 |ddv_scf|^2 =  1.268E-07

      iter #   3 total cpu time :    30.3 secs   av.it.:   9.5
      thresh= 3.561E-05 alpha_mix =  0.700 |ddv_scf|^2 =  6.671E-09

      iter #   4 total cpu time :    30.8 secs   av.it.:   8.8
      thresh= 8.167E-06 alpha_mix =  0.700 |ddv_scf|^2 =  9.349E-12

      iter #   5 total cpu time :    31.4 secs   av.it.:   9.1
      thresh= 3.058E-07 alpha_mix =  0.700 |ddv_scf|^2 =  2.850E-13

     End of self-consistent calculation

     Convergence has been achieved 


     Representation #  4 modes #   5  6

     Self-consistent Calculation

      iter #   1 total cpu time :    31.7 secs   av.it.:   5.0
      thresh= 1.000E-02 alpha_mix =  0.700 |ddv_scf|^2 =  9.081E-07

      iter #   2 total cpu time :    32.2 secs   av.it.:   9.8
      thresh= 9.530E-05 alpha_mix =  0.700 |ddv_scf|^2 =  1.150E-07

      iter #   3 total cpu time :    32.7 secs   av.it.:   9.4
      thresh= 3.391E-05 alpha_mix =  0.700 |ddv_scf|^2 =  6.132E-09

      iter #   4 total cpu time :    33.2 secs   av.it.:   8.9
      thresh= 7.831E-06 alpha_mix =  0.700 |ddv_scf|^2 =  1.402E-11

      iter #   5 total cpu time :    33.7 secs   av.it.:   9.2
      thresh= 3.744E-07 alpha_mix =  0.700 |ddv_scf|^2 =  4.306E-14

     End of self-consistent calculation

     Convergence has been achieved 

     Number of q in the star =    6
     List of q in the star:
          1   0.000000000   0.500000000   0.000000000
          2   0.000000000  -0.500000000   0.000000000
          3   0.500000000   0.000000000   0.000000000
          4   0.000000000   0.000000000   0.500000000
          5   0.000000000   0.000000000  -0.500000000
          6  -0.500000000   0.000000000   0.000000000

     Diagonalizing the dynamical matrix

     q = (    0.000000000   0.500000000   0.000000000 ) 

 **************************************************************************
     freq (    1) =       4.213679 [THz] =     140.553204 [cm-1]
     freq (    2) =       4.213679 [THz] =     140.553204 [cm-1]
     freq (    3) =       7.197431 [THz] =     240.080470 [cm-1]
     freq (    4) =      13.741374 [THz] =     458.362899 [cm-1]
     freq (    5) =      13.741374 [THz] =     458.362899 [cm-1]
     freq (    6) =      14.347576 [THz] =     478.583605 [cm-1]
 **************************************************************************

     Mode symmetry, C_4v (4mm)  point group:

     freq (  1 -  2) =        140.6  [cm-1]   --> E    G_5 D_5       
     freq (  3 -  3) =        240.1  [cm-1]   --> A_1  G_1 D_1       
     freq (  4 -  5) =        458.4  [cm-1]   --> E    G_5 D_5       
     freq (  6 -  6) =        478.6  [cm-1]   --> B_2  G_4 D_2'      

     Calculation of q =    0.7500000  -0.2500000   0.7500000

   Info: using nr1, nr2, nr3 values from input

   Info: using nr1, nr2, nr3 values from input

     Parallelization info
     --------------------
     sticks:   dense  smooth     PW     G-vecs:    dense   smooth      PW
     Min          63      63     30                  684      684     216
     Max          64      64     31                  688      688     218
     Sum         253     253    121                 2741     2741     869



     bravais-lattice index     =            2
     lattice parameter (alat)  =      10.3270  a.u.
     unit-cell volume          =     275.3357 (a.u.)^3
     number of atoms/cell      =            2
     number of atomic types    =            1
     number of electrons       =         8.00
     number of Kohn-Sham states=            4
     kinetic-energy cutoff     =      18.0000  Ry
     charge density cutoff     =      72.0000  Ry
     Exchange-correlation      = SLA  PW   PBE  PBE ( 1  4  3  4 0 0)

     celldm(1)=  10.327000  celldm(2)=   0.000000  celldm(3)=   0.000000
     celldm(4)=   0.000000  celldm(5)=   0.000000  celldm(6)=   0.000000

     crystal axes: (cart. coord. in units of alat)
               a(1) = (  -0.500000   0.000000   0.500000 )  
               a(2) = (   0.000000   0.500000   0.500000 )  
               a(3) = (  -0.500000   0.500000   0.000000 )  

     reciprocal axes: (cart. coord. in units 2 pi/alat)
               b(1) = ( -1.000000 -1.000000  1.000000 )  
               b(2) = (  1.000000  1.000000  1.000000 )  
               b(3) = ( -1.000000  1.000000 -1.000000 )  


     PseudoPot. # 1 for Si read from file:
     /home/max/quantum_espresso/qe-6.1/pseudo/si_pbe_v1.uspp.F.UPF.txt
     MD5 check sum: a056efeee980c13900f22a371efd63c1
     Pseudo is Ultrasoft + core correction, Zval =  4.0
     Generated by new atomic code, or converted to UPF format
     Using radial grid of  899 points,  6 beta functions with: 
                l(1) =   0
                l(2) =   0
                l(3) =   1
                l(4) =   1
                l(5) =   2
                l(6) =   2
     Q(r) pseudized with  8 coefficients,  rinner =    0.900   0.900   0.900
                                                       0.900   0.900

     atomic species   valence    mass     pseudopotential
        Si             4.00    28.08600     Si( 1.00)

     48 Sym. Ops., with inversion, found



   Cartesian axes

     site n.     atom                  positions (alat units)
         1           Si  tau(   1) = (   0.0000000   0.0000000   0.0000000  )
         2           Si  tau(   2) = (   0.2500000   0.2500000   0.2500000  )

     number of k points=   288

     Number of k-points >= 100: set verbosity='high' to print them.

     Dense  grid:     2741 G-vectors     FFT dimensions: (  20,  20,  20)

     Estimated max dynamical RAM per process >       0.33MB

     Estimated total allocated dynamical RAM >       1.30MB

     Check: negative/imaginary core charge=   -0.000005    0.000000

     The potential is recalculated from file :
     ./_ph0/silicon.10.327.save/charge-density.dat

     Starting wfc are    8 atomic wfcs

     Band Structure Calculation
     Davidson diagonalization with overlap

     ethr =  1.25E-10,  avg # of iterations = 11.6

     total cpu time spent up to now is        4.9 secs

     End of band structure calculation

     Number of k-points >= 100: set verbosity='high' to print the bands.

     highest occupied level (ev):     5.7190

     Writing output data file silicon.10.327.save

                                                                                

     bravais-lattice index     =            2
     lattice parameter (alat)  =      10.3270  a.u.
     unit-cell volume          =     275.3357 (a.u.)^3
     number of atoms/cell      =            2
     number of atomic types    =            1
     kinetic-energy cut-off    =      18.0000  Ry
     charge density cut-off    =      72.0000  Ry
     convergence threshold     =      1.0E-12
     beta                      =       0.7000
     number of iterations used =            4
     Exchange-correlation      = SLA  PW   PBE  PBE ( 1  4  3  4 0 0)


     celldm(1)=   10.32700  celldm(2)=    0.00000  celldm(3)=    0.00000
     celldm(4)=    0.00000  celldm(5)=    0.00000  celldm(6)=    0.00000

     crystal axes: (cart. coord. in units of alat)
               a(1) = ( -0.5000  0.0000  0.5000 )  
               a(2) = (  0.0000  0.5000  0.5000 )  
               a(3) = ( -0.5000  0.5000  0.0000 )  

     reciprocal axes: (cart. coord. in units 2 pi/alat)
               b(1) = ( -1.0000 -1.0000  1.0000 )  
               b(2) = (  1.0000  1.0000  1.0000 )  
               b(3) = ( -1.0000  1.0000 -1.0000 )  


     Atoms inside the unit cell: 

     Cartesian axes

     site n.  atom      mass           positions (alat units)
        1     Si  28.0860   tau(    1) = (    0.00000    0.00000    0.00000  )
        2     Si  28.0860   tau(    2) = (    0.25000    0.25000    0.25000  )

     Computing dynamical matrix for 
                    q = (   0.7500000  -0.2500000   0.7500000 )

      2 Sym.Ops. (no q -> -q+G )


     G cutoff =  194.5007  (    685 G-vectors)     FFT grid: ( 20, 20, 20)
     number of k points=   288

     PseudoPot. # 1 for Si read from file:
     /home/max/quantum_espresso/qe-6.1/pseudo/si_pbe_v1.uspp.F.UPF.txt
     MD5 check sum: a056efeee980c13900f22a371efd63c1
     Pseudo is Ultrasoft + core correction, Zval =  4.0
     Generated by new atomic code, or converted to UPF format
     Using radial grid of  899 points,  6 beta functions with: 
                l(1) =   0
                l(2) =   0
                l(3) =   1
                l(4) =   1
                l(5) =   2
                l(6) =   2
     Q(r) pseudized with  8 coefficients,  rinner =    0.900   0.900   0.900
                                                       0.900   0.900

     Mode symmetry, C_s (m)     point group:


     Atomic displacements:
     There are   6 irreducible representations

     Representation     1      1 modes -A'  To be done

     Representation     2      1 modes -A'  To be done

     Representation     3      1 modes -A'  To be done

     Representation     4      1 modes -A'  To be done

     Representation     5      1 modes -A''  To be done

     Representation     6      1 modes -A''  To be done



     Alpha used in Ewald sum =   0.7000
     PHONON       :    33.19s CPU        36.74s WALL



     Representation #  1 mode #   1

     Self-consistent Calculation

      iter #   1 total cpu time :    37.5 secs   av.it.:   5.3
      thresh= 1.000E-02 alpha_mix =  0.700 |ddv_scf|^2 =  6.127E-05

      iter #   2 total cpu time :    38.2 secs   av.it.:   8.9
      thresh= 7.828E-04 alpha_mix =  0.700 |ddv_scf|^2 =  1.602E-04

      iter #   3 total cpu time :    38.9 secs   av.it.:   7.6
      thresh= 1.266E-03 alpha_mix =  0.700 |ddv_scf|^2 =  1.140E-06

      iter #   4 total cpu time :    39.8 secs   av.it.:   8.4
      thresh= 1.068E-04 alpha_mix =  0.700 |ddv_scf|^2 =  5.612E-08

      iter #   5 total cpu time :    40.6 secs   av.it.:   8.3
      thresh= 2.369E-05 alpha_mix =  0.700 |ddv_scf|^2 =  7.245E-09

      iter #   6 total cpu time :    41.5 secs   av.it.:   8.5
      thresh= 8.512E-06 alpha_mix =  0.700 |ddv_scf|^2 =  7.890E-11

      iter #   7 total cpu time :    42.3 secs   av.it.:   8.8
      thresh= 8.882E-07 alpha_mix =  0.700 |ddv_scf|^2 =  2.851E-12

      iter #   8 total cpu time :    43.0 secs   av.it.:   8.6
      thresh= 1.688E-07 alpha_mix =  0.700 |ddv_scf|^2 =  1.886E-13

     End of self-consistent calculation

     Convergence has been achieved 


     Representation #  2 mode #   2

     Self-consistent Calculation

      iter #   1 total cpu time :    43.8 secs   av.it.:   5.4
      thresh= 1.000E-02 alpha_mix =  0.700 |ddv_scf|^2 =  1.091E-04

      iter #   2 total cpu time :    44.6 secs   av.it.:   8.7
      thresh= 1.045E-03 alpha_mix =  0.700 |ddv_scf|^2 =  3.108E-04

      iter #   3 total cpu time :    45.5 secs   av.it.:   7.4
      thresh= 1.763E-03 alpha_mix =  0.700 |ddv_scf|^2 =  7.810E-07

      iter #   4 total cpu time :    46.3 secs   av.it.:   8.5
      thresh= 8.837E-05 alpha_mix =  0.700 |ddv_scf|^2 =  5.570E-08

      iter #   5 total cpu time :    47.0 secs   av.it.:   8.2
      thresh= 2.360E-05 alpha_mix =  0.700 |ddv_scf|^2 =  1.020E-08

      iter #   6 total cpu time :    47.9 secs   av.it.:   8.5
      thresh= 1.010E-05 alpha_mix =  0.700 |ddv_scf|^2 =  7.849E-11

      iter #   7 total cpu time :    48.7 secs   av.it.:   8.8
      thresh= 8.860E-07 alpha_mix =  0.700 |ddv_scf|^2 =  2.492E-12

      iter #   8 total cpu time :    49.7 secs   av.it.:   8.7
      thresh= 1.579E-07 alpha_mix =  0.700 |ddv_scf|^2 =  5.939E-13

     End of self-consistent calculation

     Convergence has been achieved 


     Representation #  3 mode #   3

     Self-consistent Calculation

      iter #   1 total cpu time :    50.3 secs   av.it.:   5.3
      thresh= 1.000E-02 alpha_mix =  0.700 |ddv_scf|^2 =  8.556E-05

      iter #   2 total cpu time :    51.1 secs   av.it.:   8.8
      thresh= 9.250E-04 alpha_mix =  0.700 |ddv_scf|^2 =  2.282E-04

      iter #   3 total cpu time :    51.9 secs   av.it.:   7.4
      thresh= 1.510E-03 alpha_mix =  0.700 |ddv_scf|^2 =  1.335E-06

      iter #   4 total cpu time :    52.7 secs   av.it.:   8.2
      thresh= 1.155E-04 alpha_mix =  0.700 |ddv_scf|^2 =  5.677E-08

      iter #   5 total cpu time :    53.6 secs   av.it.:   8.4
      thresh= 2.383E-05 alpha_mix =  0.700 |ddv_scf|^2 =  1.044E-08

      iter #   6 total cpu time :    54.3 secs   av.it.:   8.4
      thresh= 1.022E-05 alpha_mix =  0.700 |ddv_scf|^2 =  4.618E-11

      iter #   7 total cpu time :    55.1 secs   av.it.:   8.7
      thresh= 6.796E-07 alpha_mix =  0.700 |ddv_scf|^2 =  1.586E-12

      iter #   8 total cpu time :    56.0 secs   av.it.:   8.8
      thresh= 1.259E-07 alpha_mix =  0.700 |ddv_scf|^2 =  2.480E-13

     End of self-consistent calculation

     Convergence has been achieved 


     Representation #  4 mode #   4

     Self-consistent Calculation

      iter #   1 total cpu time :    56.7 secs   av.it.:   5.2
      thresh= 1.000E-02 alpha_mix =  0.700 |ddv_scf|^2 =  3.774E-05

      iter #   2 total cpu time :    57.6 secs   av.it.:   8.9
[...]
        k(   59) = (  -0.8750000   0.1250000  -0.1250000), wk =   0.0625000
        k(   60) = (  -1.3750000  -0.8750000  -0.1250000), wk =   0.0000000
        k(   61) = (  -1.1250000   0.3750000  -0.3750000), wk =   0.0625000
        k(   62) = (  -1.6250000  -0.6250000  -0.3750000), wk =   0.0000000
        k(   63) = (  -0.3750000   0.3750000   1.1250000), wk =   0.0625000
        k(   64) = (  -0.8750000  -0.6250000   1.1250000), wk =   0.0000000

     Dense  grid:     2741 G-vectors     FFT dimensions: (  20,  20,  20)

     Estimated max dynamical RAM per process >       0.33MB

     Estimated total allocated dynamical RAM >       1.30MB

     Check: negative/imaginary core charge=   -0.000005    0.000000

     The potential is recalculated from file :
     ./_ph0/silicon.10.327.save/charge-density.dat

     Starting wfc are    8 atomic wfcs

     Band Structure Calculation
     Davidson diagonalization with overlap

     ethr =  1.25E-10,  avg # of iterations = 11.6

     total cpu time spent up to now is        7.5 secs

     End of band structure calculation

          k =-0.1250 0.1250 0.1250 (   338 PWs)   bands (ev):

    -5.6236   4.4103   5.7190   5.7190

          k =-0.6250-0.8750 0.1250 (   359 PWs)   bands (ev):

    -2.4268  -0.8853   2.0354   3.1088

          k =-0.3750 0.3750-0.1250 (   352 PWs)   bands (ev):

    -4.5981   1.4148   3.7349   5.2366

          k =-0.8750-0.6250-0.1250 (   359 PWs)   bands (ev):

    -2.4268  -0.8853   2.0354   3.1088

          k = 0.3750-0.3750 0.6250 (   359 PWs)   bands (ev):

    -3.4601  -0.6616   3.7541   4.4652

          k =-0.1250-1.3750 0.6250 (   361 PWs)   bands (ev):

    -2.9644  -0.5801   2.0931   4.1488

          k = 0.1250-0.1250 0.3750 (   349 PWs)   bands (ev):

    -5.0965   2.7913   4.7102   4.7753

          k =-0.3750-1.1250 0.3750 (   361 PWs)   bands (ev):

    -2.9644  -0.5801   2.0931   4.1488

          k =-0.1250 0.6250 0.1250 (   349 PWs)   bands (ev):

    -4.0654   1.0784   3.3865   3.8356

          k =-0.6250-0.3750 0.1250 (   357 PWs)   bands (ev):

    -3.6507   0.2063   2.7460   4.1116

          k = 0.6250-0.1250 0.8750 (   359 PWs)   bands (ev):

    -2.4268  -0.8853   2.0354   3.1088

          k = 0.1250-1.1250 0.8750 (   358 PWs)   bands (ev):

    -2.5940  -0.7880   2.6427   3.3684

          k = 0.3750 0.1250 0.6250 (   357 PWs)   bands (ev):

    -3.6507   0.2063   2.7460   4.1116

          k =-0.1250-0.8750 0.6250 (   359 PWs)   bands (ev):

    -2.4268  -0.8853   2.0354   3.1088

          k =-0.1250-0.8750 0.1250 (   358 PWs)   bands (ev):

    -2.5940  -0.7880   2.6427   3.3684

          k =-0.6250-1.8750 0.1250 (   349 PWs)   bands (ev):

    -4.0654   1.0784   3.3865   3.8356

          k =-0.3750 0.3750 0.3750 (   353 PWs)   bands (ev):

    -4.1661   0.1266   4.9299   4.9299

          k =-0.8750-0.6250 0.3750 (   357 PWs)   bands (ev):

    -3.6507   0.2063   2.7460   4.1116

          k = 0.3750-0.3750 1.1250 (   361 PWs)   bands (ev):

    -2.9644  -0.5801   2.0931   4.1488

          k =-0.1250-1.3750 1.1250 (   359 PWs)   bands (ev):

    -2.4268  -0.8853   2.0354   3.1088

          k = 0.1250-0.3750 0.3750 (   352 PWs)   bands (ev):

    -4.5981   1.4148   3.7349   5.2366

          k =-0.3750-1.3750 0.3750 (   359 PWs)   bands (ev):

    -3.4601  -0.6616   3.7541   4.4652

          k = 0.3750-0.3750-0.1250 (   352 PWs)   bands (ev):

    -4.5981   1.4148   3.7349   5.2366

          k =-0.1250-1.3750-0.1250 (   349 PWs)   bands (ev):

    -4.0654   1.0784   3.3865   3.8356

          k =-0.6250 0.3750-0.3750 (   359 PWs)   bands (ev):

    -3.4601  -0.6616   3.7541   4.4652

          k =-1.1250-0.6250-0.3750 (   357 PWs)   bands (ev):

    -3.6507   0.2063   2.7460   4.1116

          k =-0.3750 0.3750 0.6250 (   359 PWs)   bands (ev):

    -3.4601  -0.6616   3.7541   4.4652

          k =-0.8750-0.6250 0.6250 (   352 PWs)   bands (ev):

    -4.5981   1.4148   3.7349   5.2366

          k =-0.3750 0.1250-0.1250 (   349 PWs)   bands (ev):

    -5.0965   2.7913   4.7102   4.7753

          k =-0.8750-0.8750-0.1250 (   358 PWs)   bands (ev):

    -2.5940  -0.7880   2.6427   3.3684

          k =-0.1250 0.1250 0.3750 (   349 PWs)   bands (ev):

    -5.0965   2.7913   4.7102   4.7753

          k =-0.6250-0.8750 0.3750 (   357 PWs)   bands (ev):

    -3.6507   0.2063   2.7460   4.1116

          k = 0.1250 0.6250-0.1250 (   349 PWs)   bands (ev):

    -4.0654   1.0784   3.3865   3.8356

          k =-0.3750-0.3750-0.1250 (   352 PWs)   bands (ev):

    -4.5981   1.4148   3.7349   5.2366

          k = 0.6250 0.1250-0.1250 (   349 PWs)   bands (ev):

    -4.0654   1.0784   3.3865   3.8356

          k = 0.1250-0.8750-0.1250 (   358 PWs)   bands (ev):

    -2.5940  -0.7880   2.6427   3.3684

          k =-0.8750 0.1250-0.6250 (   359 PWs)   bands (ev):

    -2.4268  -0.8853   2.0354   3.1088

          k =-1.3750-0.8750-0.6250 (   352 PWs)   bands (ev):

    -4.5981   1.4148   3.7349   5.2366

          k = 0.8750-0.1250 0.6250 (   359 PWs)   bands (ev):

    -2.4268  -0.8853   2.0354   3.1088

          k = 0.3750-1.1250 0.6250 (   357 PWs)   bands (ev):

    -3.6507   0.2063   2.7460   4.1116

          k =-0.6250 0.1250 0.8750 (   359 PWs)   bands (ev):

    -2.4268  -0.8853   2.0354   3.1088

          k =-1.1250-0.8750 0.8750 (   338 PWs)   bands (ev):

    -5.6236   4.4103   5.7190   5.7190

          k =-0.1250 0.8750 0.6250 (   359 PWs)   bands (ev):

    -2.4268  -0.8853   2.0354   3.1088

          k =-0.6250-0.1250 0.6250 (   361 PWs)   bands (ev):

    -2.9644  -0.5801   2.0931   4.1488

          k = 0.1250 0.8750-0.6250 (   359 PWs)   bands (ev):

    -2.4268  -0.8853   2.0354   3.1088

          k =-0.3750-0.1250-0.6250 (   357 PWs)   bands (ev):

    -3.6507   0.2063   2.7460   4.1116

          k =-0.6250-0.1250-0.3750 (   357 PWs)   bands (ev):

    -3.6507   0.2063   2.7460   4.1116

          k =-1.1250-1.1250-0.3750 (   349 PWs)   bands (ev):

    -4.0654   1.0784   3.3865   3.8356

          k = 0.6250 0.1250 0.3750 (   357 PWs)   bands (ev):

    -3.6507   0.2063   2.7460   4.1116

          k = 0.1250-0.8750 0.3750 (   359 PWs)   bands (ev):

    -2.4268  -0.8853   2.0354   3.1088

          k =-0.3750-0.1250 0.6250 (   357 PWs)   bands (ev):

    -3.6507   0.2063   2.7460   4.1116

          k =-0.8750-1.1250 0.6250 (   349 PWs)   bands (ev):

    -5.0965   2.7913   4.7102   4.7753

          k = 0.1250 0.6250 0.3750 (   357 PWs)   bands (ev):

    -3.6507   0.2063   2.7460   4.1116

          k =-0.3750-0.3750 0.3750 (   353 PWs)   bands (ev):

    -4.1661   0.1266   4.9299   4.9299

          k =-0.1250 0.6250-0.3750 (   357 PWs)   bands (ev):

    -3.6507   0.2063   2.7460   4.1116

          k =-0.6250-0.3750-0.3750 (   359 PWs)   bands (ev):

    -3.4601  -0.6616   3.7541   4.4652

          k = 0.1250-0.8750-0.1250 (   358 PWs)   bands (ev):

    -2.5940  -0.7880   2.6427   3.3684

          k =-0.3750-1.8750-0.1250 (   349 PWs)   bands (ev):

    -5.0965   2.7913   4.7102   4.7753

          k =-0.8750 0.1250-0.1250 (   358 PWs)   bands (ev):

    -2.5940  -0.7880   2.6427   3.3684

          k =-1.3750-0.8750-0.1250 (   359 PWs)   bands (ev):

    -2.4268  -0.8853   2.0354   3.1088

          k =-1.1250 0.3750-0.3750 (   361 PWs)   bands (ev):

    -2.9644  -0.5801   2.0931   4.1488

          k =-1.6250-0.6250-0.3750 (   359 PWs)   bands (ev):

    -3.4601  -0.6616   3.7541   4.4652

          k =-0.3750 0.3750 1.1250 (   361 PWs)   bands (ev):

    -2.9644  -0.5801   2.0931   4.1488

          k =-0.8750-0.6250 1.1250 (   349 PWs)   bands (ev):

    -5.0965   2.7913   4.7102   4.7753

     highest occupied level (ev):     5.7190

     Writing output data file silicon.10.327.save

                                                                                

     bravais-lattice index     =            2
     lattice parameter (alat)  =      10.3270  a.u.
     unit-cell volume          =     275.3357 (a.u.)^3
     number of atoms/cell      =            2
     number of atomic types    =            1
     kinetic-energy cut-off    =      18.0000  Ry
     charge density cut-off    =      72.0000  Ry
     convergence threshold     =      1.0E-12
     beta                      =       0.7000
     number of iterations used =            4
     Exchange-correlation      = SLA  PW   PBE  PBE ( 1  4  3  4 0 0)


     celldm(1)=   10.32700  celldm(2)=    0.00000  celldm(3)=    0.00000
     celldm(4)=    0.00000  celldm(5)=    0.00000  celldm(6)=    0.00000

     crystal axes: (cart. coord. in units of alat)
               a(1) = ( -0.5000  0.0000  0.5000 )  
               a(2) = (  0.0000  0.5000  0.5000 )  
               a(3) = ( -0.5000  0.5000  0.0000 )  

     reciprocal axes: (cart. coord. in units 2 pi/alat)
               b(1) = ( -1.0000 -1.0000  1.0000 )  
               b(2) = (  1.0000  1.0000  1.0000 )  
               b(3) = ( -1.0000  1.0000 -1.0000 )  


     Atoms inside the unit cell: 

     Cartesian axes

     site n.  atom      mass           positions (alat units)
        1     Si  28.0860   tau(    1) = (    0.00000    0.00000    0.00000  )
        2     Si  28.0860   tau(    2) = (    0.25000    0.25000    0.25000  )

     Computing dynamical matrix for 
                    q = (  -0.5000000  -1.0000000   0.0000000 )

      8 Sym.Ops. (no q -> -q+G )


     G cutoff =  194.5007  (    685 G-vectors)     FFT grid: ( 20, 20, 20)
     number of k points=    64

     PseudoPot. # 1 for Si read from file:
     /home/max/quantum_espresso/qe-6.1/pseudo/si_pbe_v1.uspp.F.UPF.txt
     MD5 check sum: a056efeee980c13900f22a371efd63c1
     Pseudo is Ultrasoft + core correction, Zval =  4.0
     Generated by new atomic code, or converted to UPF format
     Using radial grid of  899 points,  6 beta functions with: 
                l(1) =   0
                l(2) =   0
                l(3) =   1
                l(4) =   1
                l(5) =   2
                l(6) =   2
     Q(r) pseudized with  8 coefficients,  rinner =    0.900   0.900   0.900
                                                       0.900   0.900


     Atomic displacements:
     There are   3 irreducible representations

     Representation     1      2 modes -  To be done

     Representation     2      2 modes -  To be done

     Representation     3      2 modes -  To be done



     Alpha used in Ewald sum =   0.7000
     PHONON       :  1m24.57s CPU     1m32.71s WALL



     Representation #  1 modes #   1  2

     Self-consistent Calculation

      iter #   1 total cpu time :    93.0 secs   av.it.:   5.3
      thresh= 1.000E-02 alpha_mix =  0.700 |ddv_scf|^2 =  6.345E-06

      iter #   2 total cpu time :    93.5 secs   av.it.:   9.9
      thresh= 2.519E-04 alpha_mix =  0.700 |ddv_scf|^2 =  3.438E-06

      iter #   3 total cpu time :    93.9 secs   av.it.:   9.2
      thresh= 1.854E-04 alpha_mix =  0.700 |ddv_scf|^2 =  8.413E-09

      iter #   4 total cpu time :    94.3 secs   av.it.:   9.1
      thresh= 9.172E-06 alpha_mix =  0.700 |ddv_scf|^2 =  1.910E-11

      iter #   5 total cpu time :    94.6 secs   av.it.:   9.2
      thresh= 4.371E-07 alpha_mix =  0.700 |ddv_scf|^2 =  5.269E-13

     End of self-consistent calculation

     Convergence has been achieved 


     Representation #  2 modes #   3  4

     Self-consistent Calculation

      iter #   1 total cpu time :    94.9 secs   av.it.:   5.2
      thresh= 1.000E-02 alpha_mix =  0.700 |ddv_scf|^2 =  9.826E-06

      iter #   2 total cpu time :    95.4 secs   av.it.:   9.9
      thresh= 3.135E-04 alpha_mix =  0.700 |ddv_scf|^2 =  1.305E-05

      iter #   3 total cpu time :    95.8 secs   av.it.:   9.1
      thresh= 3.612E-04 alpha_mix =  0.700 |ddv_scf|^2 =  9.887E-09

      iter #   4 total cpu time :    96.1 secs   av.it.:   8.9
      thresh= 9.943E-06 alpha_mix =  0.700 |ddv_scf|^2 =  7.995E-11

      iter #   5 total cpu time :    96.5 secs   av.it.:   9.4
      thresh= 8.941E-07 alpha_mix =  0.700 |ddv_scf|^2 =  1.724E-12

      iter #   6 total cpu time :    96.8 secs   av.it.:   9.1
      thresh= 1.313E-07 alpha_mix =  0.700 |ddv_scf|^2 =  1.438E-14

     End of self-consistent calculation

     Convergence has been achieved 


     Representation #  3 modes #   5  6

     Self-consistent Calculation

      iter #   1 total cpu time :    97.1 secs   av.it.:   5.1
      thresh= 1.000E-02 alpha_mix =  0.700 |ddv_scf|^2 =  2.655E-06

      iter #   2 total cpu time :    97.7 secs   av.it.:   9.7
      thresh= 1.629E-04 alpha_mix =  0.700 |ddv_scf|^2 =  1.450E-06

      iter #   3 total cpu time :    98.0 secs   av.it.:   9.1
      thresh= 1.204E-04 alpha_mix =  0.700 |ddv_scf|^2 =  8.290E-09

      iter #   4 total cpu time :    98.3 secs   av.it.:   8.8
      thresh= 9.105E-06 alpha_mix =  0.700 |ddv_scf|^2 =  4.266E-11

      iter #   5 total cpu time :    98.7 secs   av.it.:   9.1
      thresh= 6.531E-07 alpha_mix =  0.700 |ddv_scf|^2 =  6.992E-13

     End of self-consistent calculation

     Convergence has been achieved 

     Number of q in the star =    6
     List of q in the star:
          1  -0.500000000  -1.000000000   0.000000000
          2   0.000000000   1.000000000   0.500000000
          3   0.000000000  -1.000000000  -0.500000000
          4   0.500000000   1.000000000   0.000000000
          5  -1.000000000  -0.500000000   0.000000000
          6   0.000000000  -0.500000000  -1.000000000

     Diagonalizing the dynamical matrix

     q = (   -0.500000000  -1.000000000   0.000000000 ) 

 **************************************************************************
     freq (    1) =       6.987399 [THz] =     233.074549 [cm-1]
     freq (    2) =       6.987399 [THz] =     233.074549 [cm-1]
     freq (    3) =      10.799529 [THz] =     360.233519 [cm-1]
     freq (    4) =      10.799529 [THz] =     360.233519 [cm-1]
     freq (    5) =      13.817221 [THz] =     460.892886 [cm-1]
     freq (    6) =      13.817221 [THz] =     460.892886 [cm-1]
 **************************************************************************

     init_run     :      0.56s CPU      0.59s WALL (       7 calls)
     electrons    :      5.54s CPU      6.04s WALL (       7 calls)

     Called by init_run:
     wfcinit      :      0.00s CPU      0.00s WALL (       7 calls)
     potinit      :      0.02s CPU      0.02s WALL (       7 calls)

     Called by electrons:
     c_bands      :      5.54s CPU      6.02s WALL (       7 calls)
     v_of_rho     :      0.01s CPU      0.01s WALL (       8 calls)
     newd         :      0.03s CPU      0.03s WALL (       8 calls)

     Called by c_bands:
     init_us_2    :      0.68s CPU      0.74s WALL (   17588 calls)
     cegterg      :      4.67s CPU      5.08s WALL (     796 calls)

     Called by sum_band:

     Called by *egterg:
     h_psi        :     49.54s CPU     54.32s WALL (  152223 calls)
     s_psi        :      5.78s CPU      6.31s WALL (  309166 calls)
     g_psi        :      0.03s CPU      0.03s WALL (    9268 calls)
     cdiaghg      :      0.49s CPU      0.54s WALL (   10064 calls)

     Called by h_psi:
     h_psi:pot    :     49.35s CPU     54.11s WALL (  152223 calls)
     h_psi:calbec :      5.29s CPU      5.96s WALL (  152223 calls)
     vloc_psi     :     40.95s CPU     44.79s WALL (  152223 calls)
     add_vuspsi   :      2.89s CPU      3.14s WALL (  152223 calls)

     General routines
     calbec       :     11.44s CPU     12.76s WALL (  345538 calls)
     fft          :      0.64s CPU      0.73s WALL (    5239 calls)
     ffts         :      0.16s CPU      0.17s WALL (    2748 calls)
     fftw         :     47.92s CPU     52.43s WALL ( 1378332 calls)
     davcio       :      0.32s CPU      0.35s WALL (   79045 calls)

     Parallel routines
     fft_scatter  :     15.95s CPU     17.80s WALL ( 1386319 calls)

     PHONON       :  1m29.93s CPU     1m38.71s WALL

     INITIALIZATION: 
     phq_setup    :      0.06s CPU      0.06s WALL (       8 calls)
     phq_init     :      2.09s CPU      2.20s WALL (       8 calls)

     phq_init     :      2.09s CPU      2.20s WALL (       8 calls)
     set_drhoc    :      0.29s CPU      0.31s WALL (      24 calls)
     init_vloc    :      0.01s CPU      0.01s WALL (       8 calls)
     init_us_1    :      0.52s CPU      0.54s WALL (       8 calls)
     newd         :      0.03s CPU      0.03s WALL (       8 calls)
     dvanqq       :      0.24s CPU      0.25s WALL (       8 calls)
     drho         :      1.08s CPU      1.14s WALL (       8 calls)

     DYNAMICAL MATRIX:
     dynmat0      :      0.52s CPU      0.54s WALL (       8 calls)
     phqscf       :     78.89s CPU     86.80s WALL (       8 calls)
     dynmatrix    :      0.01s CPU      0.01s WALL (       8 calls)

     phqscf       :     78.89s CPU     86.80s WALL (       8 calls)
     solve_linter :     78.11s CPU     85.96s WALL (      32 calls)
     drhodv       :      0.56s CPU      0.61s WALL (      32 calls)

     dynmat0      :      0.52s CPU      0.54s WALL (       8 calls)
     dynmat_us    :      0.28s CPU      0.30s WALL (       8 calls)
     d2ionq       :      0.01s CPU      0.01s WALL (       8 calls)
     dynmatcc     :      0.21s CPU      0.22s WALL (       8 calls)

     dynmat_us    :      0.28s CPU      0.30s WALL (       8 calls)
     addusdynmat  :      0.00s CPU      0.00s WALL (       8 calls)

     phqscf       :     78.89s CPU     86.80s WALL (       8 calls)
     solve_linter :     78.11s CPU     85.96s WALL (      32 calls)

     solve_linter :     78.11s CPU     85.96s WALL (      32 calls)
     dvqpsi_us    :      1.75s CPU      1.94s WALL (    2508 calls)
     ortho        :      1.39s CPU      1.53s WALL (   15550 calls)
     cgsolve      :     61.27s CPU     67.41s WALL (   15550 calls)
     incdrhoscf   :      5.53s CPU      6.07s WALL (   15550 calls)
     addusddens   :      1.18s CPU      1.25s WALL (     228 calls)
     vpsifft      :      3.94s CPU      4.30s WALL (   12922 calls)
     dv_of_drho   :      0.26s CPU      0.28s WALL (     295 calls)
     mix_pot      :      0.06s CPU      0.08s WALL (     201 calls)
     psymdvscf    :      0.80s CPU      0.85s WALL (     196 calls)
     newdq        :      1.30s CPU      1.49s WALL (     201 calls)
     adddvscf     :      0.46s CPU      0.51s WALL (   13042 calls)
     drhodvus     :      0.00s CPU      0.00s WALL (      32 calls)

     dvqpsi_us    :      1.75s CPU      1.94s WALL (    2508 calls)
     dvqpsi_us_on :      0.83s CPU      0.92s WALL (    2508 calls)

     cgsolve      :     61.27s CPU     67.41s WALL (   15550 calls)
     ch_psi       :     58.71s CPU     64.47s WALL (  141363 calls)

     ch_psi       :     58.71s CPU     64.47s WALL (  141363 calls)
     h_psi        :     49.54s CPU     54.32s WALL (  152223 calls)
     last         :      9.92s CPU     10.98s WALL (  141363 calls)

     h_psi        :     49.54s CPU     54.32s WALL (  152223 calls)
     add_vuspsi   :      2.89s CPU      3.14s WALL (  152223 calls)

     incdrhoscf   :      5.53s CPU      6.07s WALL (   15550 calls)
     addusdbec    :      0.86s CPU      0.93s WALL (   17998 calls)

     drhodvus     :      0.00s CPU      0.00s WALL (      32 calls)

      General routines
     calbec       :     11.44s CPU     12.76s WALL (  345538 calls)
     fft          :      0.64s CPU      0.73s WALL (    5239 calls)
     ffts         :      0.16s CPU      0.17s WALL (    2748 calls)
     fftw         :     47.92s CPU     52.43s WALL ( 1378332 calls)
     davcio       :      0.32s CPU      0.35s WALL (   79045 calls)
     write_rec    :      0.23s CPU      0.29s WALL (     233 calls)


     PHONON       :  1m29.93s CPU     1m38.71s WALL


   This run was terminated on:  12:14: 1   9Nov2017            

=------------------------------------------------------------------------------=
   JOB DONE.
=------------------------------------------------------------------------------=
