
     Program PWSCF v.6.1 (svn rev. 13369) starts on 10Nov2017 at 10:30:47 

     This program is part of the open-source Quantum ESPRESSO suite
     for quantum simulation of materials; please cite
         "P. Giannozzi et al., J. Phys.:Condens. Matter 21 395502 (2009);
          URL http://www.quantum-espresso.org", 
     in publications or presentations arising from this work. More details at
     http://www.quantum-espresso.org/quote

     Parallel version (MPI), running on     4 processors
     R & G space division:  proc/nbgrp/npool/nimage =       4
     Waiting for input...
     Reading input from standard input
     Message from routine read_cards :
     DEPRECATED: no units specified in ATOMIC_POSITIONS card
     Message from routine read_cards :
     ATOMIC_POSITIONS: units set to alat

     Current dimensions of program PWSCF are:
     Max number of different atomic species (ntypx) = 10
     Max number of k-points (npk) =  40000
     Max angular momentum in pseudopotentials (lmaxx) =  3

     Subspace diagonalization in iterative solution of the eigenvalue problem:
     a serial algorithm will be used


     Parallelization info
     --------------------
     sticks:   dense  smooth     PW     G-vecs:    dense   smooth      PW
     Min         217     108     37                 4288     1495     301
     Max         219     109     38                 4289     1498     304
     Sum         871     433    151                17153     5985    1211



     bravais-lattice index     =            2
     lattice parameter (alat)  =      10.3040  a.u.
     unit-cell volume          =     273.5001 (a.u.)^3
     number of atoms/cell      =            2
     number of atomic types    =            1
     number of electrons       =         8.00
     number of Kohn-Sham states=            4
     kinetic-energy cutoff     =      30.0000  Ry
     charge density cutoff     =     240.0000  Ry
     convergence threshold     =      1.0E-08
     mixing beta               =       0.7000
     number of iterations used =            8  plain     mixing
     Exchange-correlation      = SLA  PW   PBE  PBE ( 1  4  3  4 0 0)

     celldm(1)=  10.304000  celldm(2)=   0.000000  celldm(3)=   0.000000
     celldm(4)=   0.000000  celldm(5)=   0.000000  celldm(6)=   0.000000

     crystal axes: (cart. coord. in units of alat)
               a(1) = (  -0.500000   0.000000   0.500000 )  
               a(2) = (   0.000000   0.500000   0.500000 )  
               a(3) = (  -0.500000   0.500000   0.000000 )  

     reciprocal axes: (cart. coord. in units 2 pi/alat)
               b(1) = ( -1.000000 -1.000000  1.000000 )  
               b(2) = (  1.000000  1.000000  1.000000 )  
               b(3) = ( -1.000000  1.000000 -1.000000 )  


     PseudoPot. # 1 for Si read from file:
     /home/max/quantum_espresso/qe-6.1/pseudo/si_pbe_v1.uspp.F.UPF.txt
     MD5 check sum: a056efeee980c13900f22a371efd63c1
     Pseudo is Ultrasoft + core correction, Zval =  4.0
     Generated by new atomic code, or converted to UPF format
     Using radial grid of  899 points,  6 beta functions with: 
                l(1) =   0
                l(2) =   0
                l(3) =   1
                l(4) =   1
                l(5) =   2
                l(6) =   2
     Q(r) pseudized with  8 coefficients,  rinner =    0.900   0.900   0.900
                                                       0.900   0.900

     atomic species   valence    mass     pseudopotential
        Si             4.00    28.08600     Si( 1.00)

     48 Sym. Ops., with inversion, found (24 have fractional translation)



   Cartesian axes

     site n.     atom                  positions (alat units)
         1           Si  tau(   1) = (   0.0000000   0.0000000   0.0000000  )
         2           Si  tau(   2) = (   0.2500000   0.2500000   0.2500000  )

     number of k points=    28
                       cart. coord. in units 2pi/alat
        k(    1) = (  -0.0833333   0.0833333   0.0833333), wk =   0.0185185
        k(    2) = (  -0.2500000   0.2500000  -0.0833333), wk =   0.0555556
        k(    3) = (  -0.4166667   0.4166667  -0.2500000), wk =   0.0555556
        k(    4) = (   0.4166667  -0.4166667   0.5833333), wk =   0.0555556
        k(    5) = (   0.2500000  -0.2500000   0.4166667), wk =   0.0555556
        k(    6) = (   0.0833333  -0.0833333   0.2500000), wk =   0.0555556
        k(    7) = (  -0.0833333   0.4166667   0.0833333), wk =   0.0555556
        k(    8) = (  -0.2500000   0.5833333  -0.0833333), wk =   0.1111111
        k(    9) = (   0.5833333  -0.2500000   0.7500000), wk =   0.1111111
        k(   10) = (   0.4166667  -0.0833333   0.5833333), wk =   0.1111111
        k(   11) = (   0.2500000   0.0833333   0.4166667), wk =   0.1111111
        k(   12) = (  -0.0833333   0.7500000   0.0833333), wk =   0.0555556
        k(   13) = (   0.7500000  -0.0833333   0.9166667), wk =   0.1111111
        k(   14) = (   0.5833333   0.0833333   0.7500000), wk =   0.1111111
        k(   15) = (   0.4166667   0.2500000   0.5833333), wk =   0.1111111
        k(   16) = (  -0.0833333  -0.9166667   0.0833333), wk =   0.0555556
        k(   17) = (  -0.2500000  -0.7500000  -0.0833333), wk =   0.1111111
        k(   18) = (  -0.0833333  -0.5833333   0.0833333), wk =   0.0555556
        k(   19) = (  -0.2500000   0.2500000   0.2500000), wk =   0.0185185
        k(   20) = (  -0.4166667   0.4166667   0.0833333), wk =   0.0555556
        k(   21) = (   0.4166667  -0.4166667   0.9166667), wk =   0.0555556
        k(   22) = (   0.2500000  -0.2500000   0.7500000), wk =   0.0555556
        k(   23) = (  -0.2500000   0.5833333   0.2500000), wk =   0.0555556
        k(   24) = (   0.5833333  -0.2500000   1.0833333), wk =   0.1111111
        k(   25) = (   0.4166667  -0.0833333   0.9166667), wk =   0.1111111
        k(   26) = (  -0.2500000  -1.0833333   0.2500000), wk =   0.0555556
        k(   27) = (  -0.4166667   0.4166667   0.4166667), wk =   0.0185185
        k(   28) = (   0.4166667  -0.4166667   1.2500000), wk =   0.0555556

     Dense  grid:    17153 G-vectors     FFT dimensions: (  36,  36,  36)

     Smooth grid:     5985 G-vectors     FFT dimensions: (  25,  25,  25)

     Estimated max dynamical RAM per process >       3.04MB

     Estimated total allocated dynamical RAM >      12.15MB

     Initial potential from superposition of free atoms

     starting charge    7.99866, renormalised to    8.00000
     Starting wfc are    8 randomized atomic wfcs

     total cpu time spent up to now is        0.5 secs

     per-process dynamical memory:    10.1 Mb

     Self-consistent Calculation

     iteration #  1     ecut=    30.00 Ry     beta=0.70
     Davidson diagonalization with overlap
     ethr =  1.00E-02,  avg # of iterations =  2.0

     Threshold (ethr) on eigenvalues was too large:
     Diagonalizing with lowered threshold

     Davidson diagonalization with overlap
     ethr =  6.87E-04,  avg # of iterations =  1.0

     total cpu time spent up to now is        1.2 secs

     total energy              =     -19.19113932 Ry
     Harris-Foulkes estimate   =     -19.20392753 Ry
     estimated scf accuracy    <       0.05439339 Ry

     iteration #  2     ecut=    30.00 Ry     beta=0.70
     Davidson diagonalization with overlap
     ethr =  6.80E-04,  avg # of iterations =  1.0

     total cpu time spent up to now is        1.6 secs

     total energy              =     -19.19293660 Ry
     Harris-Foulkes estimate   =     -19.19310653 Ry
     estimated scf accuracy    <       0.00244401 Ry

     iteration #  3     ecut=    30.00 Ry     beta=0.70
     Davidson diagonalization with overlap
     ethr =  3.06E-05,  avg # of iterations =  2.0

     total cpu time spent up to now is        1.8 secs

     total energy              =     -19.19326937 Ry
     Harris-Foulkes estimate   =     -19.19328317 Ry
     estimated scf accuracy    <       0.00004421 Ry

     iteration #  4     ecut=    30.00 Ry     beta=0.70
     Davidson diagonalization with overlap
     ethr =  5.53E-07,  avg # of iterations =  3.4

     total cpu time spent up to now is        2.1 secs

     total energy              =     -19.19331009 Ry
     Harris-Foulkes estimate   =     -19.19331117 Ry
     estimated scf accuracy    <       0.00000372 Ry

     iteration #  5     ecut=    30.00 Ry     beta=0.70
     Davidson diagonalization with overlap
     ethr =  4.65E-08,  avg # of iterations =  2.0

     total cpu time spent up to now is        2.3 secs

     total energy              =     -19.19331058 Ry
     Harris-Foulkes estimate   =     -19.19331058 Ry
     estimated scf accuracy    <       0.00000001 Ry

     iteration #  6     ecut=    30.00 Ry     beta=0.70
     Davidson diagonalization with overlap
     ethr =  1.29E-10,  avg # of iterations =  4.1

     total cpu time spent up to now is        2.6 secs

     End of self-consistent calculation

          k =-0.0833 0.0833 0.0833 (   743 PWs)   bands (ev):

    -5.7191   5.2082   5.9247   5.9247

          k =-0.2500 0.2500-0.0833 (   763 PWs)   bands (ev):

    -5.2461   3.1349   4.6979   5.7151

          k =-0.4167 0.4167-0.2500 (   764 PWs)   bands (ev):

    -4.1628   0.3906   4.2346   5.0821

          k = 0.4167-0.4167 0.5833 (   763 PWs)   bands (ev):

    -3.4718  -0.7437   4.2996   4.7044

          k = 0.2500-0.2500 0.4167 (   769 PWs)   bands (ev):

    -4.5710   1.2312   4.7647   4.7956

          k = 0.0833-0.0833 0.2500 (   761 PWs)   bands (ev):

    -5.4803   4.1412   5.2837   5.4669

          k =-0.0833 0.4167 0.0833 (   762 PWs)   bands (ev):

    -5.0066   2.9437   4.5423   4.5588

          k =-0.2500 0.5833-0.0833 (   761 PWs)   bands (ev):

    -4.1034   1.1138   3.2343   4.1742

          k = 0.5833-0.2500 0.7500 (   757 PWs)   bands (ev):

    -2.9977  -0.6215   2.6349   3.9492

          k = 0.4167-0.0833 0.5833 (   762 PWs)   bands (ev):

    -3.7124   0.4265   2.5958   4.4315

          k = 0.2500 0.0833 0.4167 (   764 PWs)   bands (ev):

    -4.7830   2.1138   3.9263   5.0940

          k =-0.0833 0.7500 0.0833 (   761 PWs)   bands (ev):

    -3.3968   0.2881   3.1999   3.5365

          k = 0.7500-0.0833 0.9167 (   751 PWs)   bands (ev):

    -2.2107  -1.0434   2.3655   3.1338

          k = 0.5833 0.0833 0.7500 (   749 PWs)   bands (ev):

    -2.5807  -0.7069   1.8853   3.6752

          k = 0.4167 0.2500 0.5833 (   762 PWs)   bands (ev):

    -3.6021  -0.2485   3.5278   4.5283

          k =-0.0833-0.9167 0.0833 (   759 PWs)   bands (ev):

    -2.3009  -1.0510   2.9323   3.3225

          k =-0.2500-0.7500-0.0833 (   760 PWs)   bands (ev):

    -3.2300   0.0668   2.6835   3.4719

          k =-0.0833-0.5833 0.0833 (   757 PWs)   bands (ev):

    -4.3071   1.6467   3.7403   3.9562

          k =-0.2500 0.2500 0.2500 (   757 PWs)   bands (ev):

    -5.0183   2.1629   5.3148   5.3148

          k =-0.4167 0.4167 0.0833 (   755 PWs)   bands (ev):

    -4.3445   1.2309   3.1984   5.1461

          k = 0.4167-0.4167 0.9167 (   761 PWs)   bands (ev):

    -3.1757  -0.2035   2.1005   4.3657

          k = 0.2500-0.2500 0.7500 (   758 PWs)   bands (ev):

    -3.1235  -0.2824   2.5746   3.8873

          k =-0.2500 0.5833 0.2500 (   765 PWs)   bands (ev):

    -3.9241   0.4294   3.6569   4.2579

          k = 0.5833-0.2500 1.0833 (   755 PWs)   bands (ev):

    -2.9303  -0.3184   2.2002   3.4703

          k = 0.4167-0.0833 0.9167 (   750 PWs)   bands (ev):

    -2.1060  -1.0511   2.0391   2.8085

          k =-0.2500-1.0833 0.2500 (   752 PWs)   bands (ev):

    -2.3152  -0.9557   1.9137   3.6940

          k =-0.4167 0.4167 0.4167 (   763 PWs)   bands (ev):

    -3.8371  -0.3464   4.9281   4.9281

          k = 0.4167-0.4167 1.2500 (   757 PWs)   bands (ev):

    -3.2378  -0.6485   3.1055   4.4915

     highest occupied level (ev):     5.9247

!    total energy              =     -19.19331062 Ry
     Harris-Foulkes estimate   =     -19.19331062 Ry
     estimated scf accuracy    <          9.7E-10 Ry

     The total energy is the sum of the following terms:

     one-electron contribution =       5.01631764 Ry
     hartree contribution      =       1.12636415 Ry
     xc contribution           =      -8.60680593 Ry
     ewald contribution        =     -16.72918648 Ry

     convergence has been achieved in   6 iterations

     Writing output data file silicon.10.304.save

     init_run     :      0.35s CPU      0.39s WALL (       1 calls)
     electrons    :      1.57s CPU      2.15s WALL (       1 calls)

     Called by init_run:
     wfcinit      :      0.07s CPU      0.09s WALL (       1 calls)
     potinit      :      0.02s CPU      0.03s WALL (       1 calls)

     Called by electrons:
     c_bands      :      0.95s CPU      1.31s WALL (       7 calls)
     sum_band     :      0.36s CPU      0.52s WALL (       7 calls)
     v_of_rho     :      0.11s CPU      0.14s WALL (       7 calls)
     newd         :      0.17s CPU      0.19s WALL (       7 calls)
     mix_rho      :      0.01s CPU      0.01s WALL (       7 calls)

     Called by c_bands:
     init_us_2    :      0.05s CPU      0.06s WALL (     420 calls)
     cegterg      :      0.82s CPU      1.15s WALL (     196 calls)

     Called by sum_band:
     sum_band:bec :      0.00s CPU      0.00s WALL (     196 calls)
     addusdens    :      0.16s CPU      0.20s WALL (       7 calls)

     Called by *egterg:
     h_psi        :      0.68s CPU      0.95s WALL (     657 calls)
     s_psi        :      0.05s CPU      0.06s WALL (     657 calls)
     g_psi        :      0.00s CPU      0.00s WALL (     433 calls)
     cdiaghg      :      0.05s CPU      0.07s WALL (     601 calls)

     Called by h_psi:
     h_psi:pot    :      0.68s CPU      0.95s WALL (     657 calls)
     h_psi:calbec :      0.07s CPU      0.10s WALL (     657 calls)
     vloc_psi     :      0.56s CPU      0.79s WALL (     657 calls)
     add_vuspsi   :      0.05s CPU      0.06s WALL (     657 calls)

     General routines
     calbec       :      0.09s CPU      0.14s WALL (     853 calls)
     fft          :      0.09s CPU      0.13s WALL (     112 calls)
     ffts         :      0.00s CPU      0.00s WALL (      14 calls)
     fftw         :      0.58s CPU      0.88s WALL (    5702 calls)
     interpolate  :      0.01s CPU      0.01s WALL (      14 calls)
     davcio       :      0.00s CPU      0.00s WALL (      28 calls)

     Parallel routines
     fft_scatter  :      0.34s CPU      0.60s WALL (    5828 calls)

     PWSCF        :     2.13s CPU         2.80s WALL


   This run was terminated on:  10:30:49  10Nov2017            

=------------------------------------------------------------------------------=
   JOB DONE.
=------------------------------------------------------------------------------=
