
     Program PHONON v.6.1 (svn rev. 13369) starts on  9Nov2017 at 12:10:35 

     This program is part of the open-source Quantum ESPRESSO suite
     for quantum simulation of materials; please cite
         "P. Giannozzi et al., J. Phys.:Condens. Matter 21 395502 (2009);
          URL http://www.quantum-espresso.org", 
     in publications or presentations arising from this work. More details at
     http://www.quantum-espresso.org/quote

     Parallel version (MPI), running on     4 processors
     R & G space division:  proc/nbgrp/npool/nimage =       4

     Reading data from directory:
     ./silicon.10.326.save

   Info: using nr1, nr2, nr3 values from input

   Info: using nr1, nr2, nr3 values from input

     IMPORTANT: XC functional enforced from input :
     Exchange-correlation      = SLA  PW   PBE  PBE ( 1  4  3  4 0 0)
     Any further DFT definition will be discarded
     Please, verify this is what you really want


     Parallelization info
     --------------------
     sticks:   dense  smooth     PW     G-vecs:    dense   smooth      PW
     Min          63      63     22                  684      684     140
     Max          64      64     23                  688      688     141
     Sum         253     253     91                 2741     2741     561


     Check: negative/imaginary core charge=   -0.000005    0.000000


     Dynamical matrices for ( 4, 4, 4)  uniform grid of q-points
     (   8q-points):
       N         xq(1)         xq(2)         xq(3) 
       1   0.000000000   0.000000000   0.000000000
       2  -0.250000000   0.250000000  -0.250000000
       3   0.500000000  -0.500000000   0.500000000
       4   0.000000000   0.500000000   0.000000000
       5   0.750000000  -0.250000000   0.750000000
       6   0.500000000   0.000000000   0.500000000
       7   0.000000000  -1.000000000   0.000000000
       8  -0.500000000  -1.000000000   0.000000000

     Calculation of q =    0.0000000   0.0000000   0.0000000

                                                                                

     bravais-lattice index     =            2
     lattice parameter (alat)  =      10.3260  a.u.
     unit-cell volume          =     275.2557 (a.u.)^3
     number of atoms/cell      =            2
     number of atomic types    =            1
     kinetic-energy cut-off    =      18.0000  Ry
     charge density cut-off    =      72.0000  Ry
     convergence threshold     =      1.0E-12
     beta                      =       0.7000
     number of iterations used =            4
     Exchange-correlation      = SLA  PW   PBE  PBE ( 1  4  3  4 0 0)


     celldm(1)=   10.32600  celldm(2)=    0.00000  celldm(3)=    0.00000
     celldm(4)=    0.00000  celldm(5)=    0.00000  celldm(6)=    0.00000

     crystal axes: (cart. coord. in units of alat)
               a(1) = ( -0.5000  0.0000  0.5000 )  
               a(2) = (  0.0000  0.5000  0.5000 )  
               a(3) = ( -0.5000  0.5000  0.0000 )  

     reciprocal axes: (cart. coord. in units 2 pi/alat)
               b(1) = ( -1.0000 -1.0000  1.0000 )  
               b(2) = (  1.0000  1.0000  1.0000 )  
               b(3) = ( -1.0000  1.0000 -1.0000 )  


     Atoms inside the unit cell: 

     Cartesian axes

     site n.  atom      mass           positions (alat units)
        1     Si  28.0860   tau(    1) = (    0.00000    0.00000    0.00000  )
        2     Si  28.0860   tau(    2) = (    0.25000    0.25000    0.25000  )

     Computing dynamical matrix for 
                    q = (   0.0000000   0.0000000   0.0000000 )

     49 Sym.Ops. (with q -> -q+G )


     G cutoff =  194.4630  (    685 G-vectors)     FFT grid: ( 20, 20, 20)
     number of k points=    10

     PseudoPot. # 1 for Si read from file:
     /home/max/quantum_espresso/qe-6.1/pseudo/si_pbe_v1.uspp.F.UPF.txt
     MD5 check sum: a056efeee980c13900f22a371efd63c1
     Pseudo is Ultrasoft + core correction, Zval =  4.0
     Generated by new atomic code, or converted to UPF format
     Using radial grid of  899 points,  6 beta functions with: 
                l(1) =   0
                l(2) =   0
                l(3) =   1
                l(4) =   1
                l(5) =   2
                l(6) =   2
     Q(r) pseudized with  8 coefficients,  rinner =    0.900   0.900   0.900
                                                       0.900   0.900

     Mode symmetry, O_h (m-3m)  point group:


     Electric field:
     Dielectric constant
     Born effective charges in two ways 


     Atomic displacements:
     There are   2 irreducible representations

     Representation     1      3 modes -T_2g G_25' G_5+  To be done

     Representation     2      3 modes -T_1u G_15  G_4-  To be done



     Alpha used in Ewald sum =   0.7000
     PHONON       :     0.45s CPU         0.56s WALL


     Electric Fields Calculation

      iter #   1 total cpu time :     1.0 secs   av.it.:   5.6
      thresh= 1.000E-02 alpha_mix =  0.700 |ddv_scf|^2 =  9.055E-07

      iter #   2 total cpu time :     1.2 secs   av.it.:   9.9
      thresh= 9.516E-05 alpha_mix =  0.700 |ddv_scf|^2 =  5.563E-08

      iter #   3 total cpu time :     1.4 secs   av.it.:   9.8
      thresh= 2.359E-05 alpha_mix =  0.700 |ddv_scf|^2 =  4.224E-09

      iter #   4 total cpu time :     1.6 secs   av.it.:   9.0
      thresh= 6.499E-06 alpha_mix =  0.700 |ddv_scf|^2 =  2.482E-11

      iter #   5 total cpu time :     1.8 secs   av.it.:   9.1
      thresh= 4.982E-07 alpha_mix =  0.700 |ddv_scf|^2 =  1.321E-14

     End of electric fields calculation

          Dielectric constant in cartesian axis 

          (      13.856099374       0.000000000       0.000000000 )
          (       0.000000000      13.856099374      -0.000000000 )
          (       0.000000000      -0.000000000      13.856099374 )

          Effective charges (d Force / dE) in cartesian axis

           atom      1   Si 
      Ex  (       -0.03119       -0.00000       -0.00000 )
      Ey  (       -0.00000       -0.03119        0.00000 )
      Ez  (       -0.00000        0.00000       -0.03119 )
           atom      2   Si 
      Ex  (       -0.03119        0.00000        0.00000 )
      Ey  (        0.00000       -0.03119       -0.00000 )
      Ez  (        0.00000        0.00000       -0.03119 )


     Representation #  1 modes #   1  2  3

     Self-consistent Calculation

      iter #   1 total cpu time :     2.3 secs   av.it.:   4.9
      thresh= 1.000E-02 alpha_mix =  0.700 |ddv_scf|^2 =  2.244E-07

      iter #   2 total cpu time :     2.6 secs   av.it.:   9.7
      thresh= 4.737E-05 alpha_mix =  0.700 |ddv_scf|^2 =  1.388E-08

      iter #   3 total cpu time :     2.8 secs   av.it.:   9.3
      thresh= 1.178E-05 alpha_mix =  0.700 |ddv_scf|^2 =  8.565E-10

      iter #   4 total cpu time :     3.0 secs   av.it.:   9.0
      thresh= 2.927E-06 alpha_mix =  0.700 |ddv_scf|^2 =  1.881E-12

      iter #   5 total cpu time :     3.2 secs   av.it.:   9.4
      thresh= 1.371E-07 alpha_mix =  0.700 |ddv_scf|^2 =  1.227E-14

     End of self-consistent calculation

     Convergence has been achieved 


     Representation #  2 modes #   4  5  6

     Self-consistent Calculation

      iter #   1 total cpu time :     3.5 secs   av.it.:   5.0
      thresh= 1.000E-02 alpha_mix =  0.700 |ddv_scf|^2 =  1.704E-07

      iter #   2 total cpu time :     3.7 secs   av.it.:   9.6
      thresh= 4.128E-05 alpha_mix =  0.700 |ddv_scf|^2 =  1.328E-08

      iter #   3 total cpu time :     3.9 secs   av.it.:   9.3
      thresh= 1.152E-05 alpha_mix =  0.700 |ddv_scf|^2 =  8.462E-10

      iter #   4 total cpu time :     4.1 secs   av.it.:   9.5
      thresh= 2.909E-06 alpha_mix =  0.700 |ddv_scf|^2 =  5.072E-12

      iter #   5 total cpu time :     4.5 secs   av.it.:   9.0
      thresh= 2.252E-07 alpha_mix =  0.700 |ddv_scf|^2 =  4.418E-15

     End of self-consistent calculation

     Convergence has been achieved 

     Number of q in the star =    1
     List of q in the star:
          1   0.000000000   0.000000000   0.000000000

          Dielectric constant in cartesian axis 

          (      13.856099374       0.000000000       0.000000000 )
          (       0.000000000      13.856099374      -0.000000000 )
          (       0.000000000      -0.000000000      13.856099374 )

          Effective charges (d Force / dE) in cartesian axis

           atom      1   Si 
      Ex  (       -0.03119       -0.00000       -0.00000 )
      Ey  (       -0.00000       -0.03119        0.00000 )
      Ez  (       -0.00000        0.00000       -0.03119 )
           atom      2   Si 
      Ex  (       -0.03119        0.00000        0.00000 )
      Ey  (        0.00000       -0.03119       -0.00000 )
      Ez  (        0.00000        0.00000       -0.03119 )

          Effective charges (d P / du) in cartesian axis 

           atom      1   Si 
      Px  (       -0.07225        0.00000        0.00000 )
      Py  (        0.00000       -0.07225       -0.00000 )
      Pz  (        0.00000       -0.00000       -0.07225 )
           atom      2   Si 
      Px  (       -0.07225        0.00000        0.00000 )
      Py  (        0.00000       -0.07225        0.00000 )
      Pz  (       -0.00000        0.00000       -0.07225 )

     Diagonalizing the dynamical matrix

     q = (    0.000000000   0.000000000   0.000000000 ) 

 **************************************************************************
     freq (    1) =       1.945454 [THz] =      64.893361 [cm-1]
     freq (    2) =       1.945454 [THz] =      64.893361 [cm-1]
     freq (    3) =       1.945454 [THz] =      64.893361 [cm-1]
     freq (    4) =      15.045477 [THz] =     501.863101 [cm-1]
     freq (    5) =      15.045477 [THz] =     501.863101 [cm-1]
     freq (    6) =      15.045477 [THz] =     501.863101 [cm-1]
 **************************************************************************

     Mode symmetry, O_h (m-3m)  point group:

     freq (  1 -  3) =         64.9  [cm-1]   --> T_1u G_15  G_4- I  
     freq (  4 -  6) =        501.9  [cm-1]   --> T_2g G_25' G_5+ R  

     Calculation of q =   -0.2500000   0.2500000  -0.2500000

   Info: using nr1, nr2, nr3 values from input

   Info: using nr1, nr2, nr3 values from input

     Parallelization info
     --------------------
     sticks:   dense  smooth     PW     G-vecs:    dense   smooth      PW
     Min          63      63     24                  684      684     161
     Max          64      64     25                  688      688     162
     Sum         253     253     97                 2741     2741     645



     bravais-lattice index     =            2
     lattice parameter (alat)  =      10.3260  a.u.
     unit-cell volume          =     275.2557 (a.u.)^3
     number of atoms/cell      =            2
     number of atomic types    =            1
     number of electrons       =         8.00
     number of Kohn-Sham states=            4
     kinetic-energy cutoff     =      18.0000  Ry
     charge density cutoff     =      72.0000  Ry
     Exchange-correlation      = SLA  PW   PBE  PBE ( 1  4  3  4 0 0)

     celldm(1)=  10.326000  celldm(2)=   0.000000  celldm(3)=   0.000000
     celldm(4)=   0.000000  celldm(5)=   0.000000  celldm(6)=   0.000000

     crystal axes: (cart. coord. in units of alat)
               a(1) = (  -0.500000   0.000000   0.500000 )  
               a(2) = (   0.000000   0.500000   0.500000 )  
               a(3) = (  -0.500000   0.500000   0.000000 )  

     reciprocal axes: (cart. coord. in units 2 pi/alat)
               b(1) = ( -1.000000 -1.000000  1.000000 )  
               b(2) = (  1.000000  1.000000  1.000000 )  
               b(3) = ( -1.000000  1.000000 -1.000000 )  


     PseudoPot. # 1 for Si read from file:
     /home/max/quantum_espresso/qe-6.1/pseudo/si_pbe_v1.uspp.F.UPF.txt
     MD5 check sum: a056efeee980c13900f22a371efd63c1
     Pseudo is Ultrasoft + core correction, Zval =  4.0
     Generated by new atomic code, or converted to UPF format
     Using radial grid of  899 points,  6 beta functions with: 
                l(1) =   0
                l(2) =   0
                l(3) =   1
                l(4) =   1
                l(5) =   2
                l(6) =   2
     Q(r) pseudized with  8 coefficients,  rinner =    0.900   0.900   0.900
                                                       0.900   0.900

     atomic species   valence    mass     pseudopotential
        Si             4.00    28.08600     Si( 1.00)

     48 Sym. Ops., with inversion, found



   Cartesian axes

     site n.     atom                  positions (alat units)
         1           Si  tau(   1) = (   0.0000000   0.0000000   0.0000000  )
         2           Si  tau(   2) = (   0.2500000   0.2500000   0.2500000  )

     number of k points=   120

     Number of k-points >= 100: set verbosity='high' to print them.

     Dense  grid:     2741 G-vectors     FFT dimensions: (  20,  20,  20)

     Estimated max dynamical RAM per process >       0.33MB

     Estimated total allocated dynamical RAM >       1.30MB

     Check: negative/imaginary core charge=   -0.000005    0.000000

     The potential is recalculated from file :
     ./_ph0/silicon.10.326.save/charge-density.dat

     Starting wfc are    8 atomic wfcs

     Band Structure Calculation
     Davidson diagonalization with overlap

     ethr =  1.25E-10,  avg # of iterations = 11.7

     total cpu time spent up to now is        0.9 secs

     End of band structure calculation

     Number of k-points >= 100: set verbosity='high' to print the bands.

     highest occupied level (ev):     5.7219

     Writing output data file silicon.10.326.save

                                                                                

     bravais-lattice index     =            2
     lattice parameter (alat)  =      10.3260  a.u.
     unit-cell volume          =     275.2557 (a.u.)^3
     number of atoms/cell      =            2
     number of atomic types    =            1
     kinetic-energy cut-off    =      18.0000  Ry
     charge density cut-off    =      72.0000  Ry
     convergence threshold     =      1.0E-12
     beta                      =       0.7000
     number of iterations used =            4
     Exchange-correlation      = SLA  PW   PBE  PBE ( 1  4  3  4 0 0)


     celldm(1)=   10.32600  celldm(2)=    0.00000  celldm(3)=    0.00000
     celldm(4)=    0.00000  celldm(5)=    0.00000  celldm(6)=    0.00000

     crystal axes: (cart. coord. in units of alat)
               a(1) = ( -0.5000  0.0000  0.5000 )  
               a(2) = (  0.0000  0.5000  0.5000 )  
               a(3) = ( -0.5000  0.5000  0.0000 )  

     reciprocal axes: (cart. coord. in units 2 pi/alat)
               b(1) = ( -1.0000 -1.0000  1.0000 )  
               b(2) = (  1.0000  1.0000  1.0000 )  
               b(3) = ( -1.0000  1.0000 -1.0000 )  


     Atoms inside the unit cell: 

     Cartesian axes

     site n.  atom      mass           positions (alat units)
        1     Si  28.0860   tau(    1) = (    0.00000    0.00000    0.00000  )
        2     Si  28.0860   tau(    2) = (    0.25000    0.25000    0.25000  )

     Computing dynamical matrix for 
                    q = (  -0.2500000   0.2500000  -0.2500000 )

      6 Sym.Ops. (no q -> -q+G )


     G cutoff =  194.4630  (    685 G-vectors)     FFT grid: ( 20, 20, 20)
     number of k points=   120

     PseudoPot. # 1 for Si read from file:
     /home/max/quantum_espresso/qe-6.1/pseudo/si_pbe_v1.uspp.F.UPF.txt
     MD5 check sum: a056efeee980c13900f22a371efd63c1
     Pseudo is Ultrasoft + core correction, Zval =  4.0
     Generated by new atomic code, or converted to UPF format
     Using radial grid of  899 points,  6 beta functions with: 
                l(1) =   0
                l(2) =   0
                l(3) =   1
                l(4) =   1
                l(5) =   2
                l(6) =   2
     Q(r) pseudized with  8 coefficients,  rinner =    0.900   0.900   0.900
                                                       0.900   0.900

     Mode symmetry, C_3v (3m)   point group:


     Atomic displacements:
     There are   4 irreducible representations

     Representation     1      1 modes -A_1  L_1  To be done

     Representation     2      1 modes -A_1  L_1  To be done

     Representation     3      2 modes -E    L_3  To be done

     Representation     4      2 modes -E    L_3  To be done



     Alpha used in Ewald sum =   0.7000
     PHONON       :     5.06s CPU         5.91s WALL



     Representation #  1 mode #   1

     Self-consistent Calculation

      iter #   1 total cpu time :     6.2 secs   av.it.:   5.5
      thresh= 1.000E-02 alpha_mix =  0.700 |ddv_scf|^2 =  2.476E-03

      iter #   2 total cpu time :     6.6 secs   av.it.:   7.5
      thresh= 4.976E-03 alpha_mix =  0.700 |ddv_scf|^2 =  3.733E-02

      iter #   3 total cpu time :     6.9 secs   av.it.:   6.3
      thresh= 1.000E-02 alpha_mix =  0.700 |ddv_scf|^2 =  1.714E-06

      iter #   4 total cpu time :     7.2 secs   av.it.:   8.1
      thresh= 1.309E-04 alpha_mix =  0.700 |ddv_scf|^2 =  1.148E-07

      iter #   5 total cpu time :     7.4 secs   av.it.:   8.1
      thresh= 3.389E-05 alpha_mix =  0.700 |ddv_scf|^2 =  4.356E-09

      iter #   6 total cpu time :     7.7 secs   av.it.:   8.0
      thresh= 6.600E-06 alpha_mix =  0.700 |ddv_scf|^2 =  4.590E-09

      iter #   7 total cpu time :     8.0 secs   av.it.:   6.0
      thresh= 6.775E-06 alpha_mix =  0.700 |ddv_scf|^2 =  4.225E-10

      iter #   8 total cpu time :     8.4 secs   av.it.:   7.3
      thresh= 2.055E-06 alpha_mix =  0.700 |ddv_scf|^2 =  3.957E-12

      iter #   9 total cpu time :     8.7 secs   av.it.:   7.2
      thresh= 1.989E-07 alpha_mix =  0.700 |ddv_scf|^2 =  1.394E-13

     End of self-consistent calculation

     Convergence has been achieved 


     Representation #  2 mode #   2

     Self-consistent Calculation

      iter #   1 total cpu time :     9.0 secs   av.it.:   5.5
      thresh= 1.000E-02 alpha_mix =  0.700 |ddv_scf|^2 =  2.476E-03

      iter #   2 total cpu time :     9.2 secs   av.it.:   7.5
      thresh= 4.976E-03 alpha_mix =  0.700 |ddv_scf|^2 =  3.733E-02

      iter #   3 total cpu time :     9.5 secs   av.it.:   6.3
      thresh= 1.000E-02 alpha_mix =  0.700 |ddv_scf|^2 =  1.714E-06

      iter #   4 total cpu time :     9.8 secs   av.it.:   8.1
      thresh= 1.309E-04 alpha_mix =  0.700 |ddv_scf|^2 =  1.148E-07

      iter #   5 total cpu time :    10.1 secs   av.it.:   8.1
      thresh= 3.389E-05 alpha_mix =  0.700 |ddv_scf|^2 =  4.356E-09

      iter #   6 total cpu time :    10.6 secs   av.it.:   8.0
      thresh= 6.600E-06 alpha_mix =  0.700 |ddv_scf|^2 =  4.590E-09

      iter #   7 total cpu time :    10.8 secs   av.it.:   6.0
      thresh= 6.775E-06 alpha_mix =  0.700 |ddv_scf|^2 =  4.225E-10

      iter #   8 total cpu time :    11.1 secs   av.it.:   7.3
      thresh= 2.055E-06 alpha_mix =  0.700 |ddv_scf|^2 =  3.957E-12

      iter #   9 total cpu time :    11.4 secs   av.it.:   7.2
      thresh= 1.989E-07 alpha_mix =  0.700 |ddv_scf|^2 =  1.394E-13

     End of self-consistent calculation

     Convergence has been achieved 


     Representation #  3 modes #   3  4

     Self-consistent Calculation

      iter #   1 total cpu time :    11.9 secs   av.it.:   4.9
      thresh= 1.000E-02 alpha_mix =  0.700 |ddv_scf|^2 =  5.552E-07

      iter #   2 total cpu time :    12.7 secs   av.it.:   9.5
      thresh= 7.451E-05 alpha_mix =  0.700 |ddv_scf|^2 =  4.095E-08

      iter #   3 total cpu time :    13.4 secs   av.it.:   9.3
      thresh= 2.024E-05 alpha_mix =  0.700 |ddv_scf|^2 =  3.513E-09

      iter #   4 total cpu time :    14.0 secs   av.it.:   9.0
      thresh= 5.927E-06 alpha_mix =  0.700 |ddv_scf|^2 =  1.081E-11

      iter #   5 total cpu time :    14.9 secs   av.it.:   9.2
      thresh= 3.288E-07 alpha_mix =  0.700 |ddv_scf|^2 =  4.933E-13

     End of self-consistent calculation

     Convergence has been achieved 


     Representation #  4 modes #   5  6

     Self-consistent Calculation

      iter #   1 total cpu time :    15.4 secs   av.it.:   5.0
      thresh= 1.000E-02 alpha_mix =  0.700 |ddv_scf|^2 =  5.550E-07

      iter #   2 total cpu time :    16.0 secs   av.it.:   9.7
      thresh= 7.450E-05 alpha_mix =  0.700 |ddv_scf|^2 =  4.091E-08

      iter #   3 total cpu time :    16.9 secs   av.it.:   9.4
      thresh= 2.023E-05 alpha_mix =  0.700 |ddv_scf|^2 =  3.510E-09

      iter #   4 total cpu time :    17.5 secs   av.it.:   9.1
      thresh= 5.925E-06 alpha_mix =  0.700 |ddv_scf|^2 =  1.082E-11

      iter #   5 total cpu time :    18.2 secs   av.it.:   9.2
      thresh= 3.289E-07 alpha_mix =  0.700 |ddv_scf|^2 =  4.937E-13

     End of self-consistent calculation

     Convergence has been achieved 

     Number of q in the star =    8
     List of q in the star:
          1  -0.250000000   0.250000000  -0.250000000
          2   0.250000000  -0.250000000  -0.250000000
          3   0.250000000  -0.250000000   0.250000000
          4   0.250000000   0.250000000   0.250000000
          5  -0.250000000  -0.250000000  -0.250000000
          6  -0.250000000  -0.250000000   0.250000000
          7  -0.250000000   0.250000000   0.250000000
          8   0.250000000   0.250000000  -0.250000000

     Diagonalizing the dynamical matrix

     q = (   -0.250000000   0.250000000  -0.250000000 ) 

 **************************************************************************
     freq (    1) =       3.386882 [THz] =     112.974212 [cm-1]
     freq (    2) =       3.386882 [THz] =     112.974212 [cm-1]
     freq (    3) =       6.948840 [THz] =     231.788364 [cm-1]
     freq (    4) =      14.118707 [THz] =     470.949359 [cm-1]
     freq (    5) =      14.434302 [THz] =     481.476495 [cm-1]
     freq (    6) =      14.434302 [THz] =     481.476495 [cm-1]
 **************************************************************************

     Mode symmetry, C_3v (3m)   point group:

     freq (  1 -  2) =        113.0  [cm-1]   --> E    L_3           
     freq (  3 -  3) =        231.8  [cm-1]   --> A_1  L_1           
     freq (  4 -  4) =        470.9  [cm-1]   --> A_1  L_1           
     freq (  5 -  6) =        481.5  [cm-1]   --> E    L_3           

     Calculation of q =    0.5000000  -0.5000000   0.5000000

   Info: using nr1, nr2, nr3 values from input

   Info: using nr1, nr2, nr3 values from input

     Parallelization info
     --------------------
     sticks:   dense  smooth     PW     G-vecs:    dense   smooth      PW
     Min          63      63     27                  684      684     186
     Max          64      64     28                  688      688     189
     Sum         253     253    109                 2741     2741     749



     bravais-lattice index     =            2
     lattice parameter (alat)  =      10.3260  a.u.
     unit-cell volume          =     275.2557 (a.u.)^3
     number of atoms/cell      =            2
     number of atomic types    =            1
     number of electrons       =         8.00
     number of Kohn-Sham states=            4
     kinetic-energy cutoff     =      18.0000  Ry
     charge density cutoff     =      72.0000  Ry
     Exchange-correlation      = SLA  PW   PBE  PBE ( 1  4  3  4 0 0)

     celldm(1)=  10.326000  celldm(2)=   0.000000  celldm(3)=   0.000000
     celldm(4)=   0.000000  celldm(5)=   0.000000  celldm(6)=   0.000000

     crystal axes: (cart. coord. in units of alat)
               a(1) = (  -0.500000   0.000000   0.500000 )  
               a(2) = (   0.000000   0.500000   0.500000 )  
               a(3) = (  -0.500000   0.500000   0.000000 )  

     reciprocal axes: (cart. coord. in units 2 pi/alat)
               b(1) = ( -1.000000 -1.000000  1.000000 )  
               b(2) = (  1.000000  1.000000  1.000000 )  
               b(3) = ( -1.000000  1.000000 -1.000000 )  


     PseudoPot. # 1 for Si read from file:
     /home/max/quantum_espresso/qe-6.1/pseudo/si_pbe_v1.uspp.F.UPF.txt
     MD5 check sum: a056efeee980c13900f22a371efd63c1
     Pseudo is Ultrasoft + core correction, Zval =  4.0
     Generated by new atomic code, or converted to UPF format
     Using radial grid of  899 points,  6 beta functions with: 
                l(1) =   0
                l(2) =   0
                l(3) =   1
                l(4) =   1
                l(5) =   2
                l(6) =   2
     Q(r) pseudized with  8 coefficients,  rinner =    0.900   0.900   0.900
                                                       0.900   0.900

     atomic species   valence    mass     pseudopotential
        Si             4.00    28.08600     Si( 1.00)

     48 Sym. Ops., with inversion, found



   Cartesian axes

     site n.     atom                  positions (alat units)
         1           Si  tau(   1) = (   0.0000000   0.0000000   0.0000000  )
         2           Si  tau(   2) = (   0.2500000   0.2500000   0.2500000  )

     number of k points=    60
                       cart. coord. in units 2pi/alat
        k(    1) = (  -0.1250000   0.1250000   0.1250000), wk =   0.0468750
        k(    2) = (   0.3750000  -0.3750000   0.6250000), wk =   0.0000000
        k(    3) = (  -0.3750000   0.3750000  -0.1250000), wk =   0.0468750
        k(    4) = (   0.1250000  -0.1250000   0.3750000), wk =   0.0000000
        k(    5) = (   0.3750000  -0.3750000   0.6250000), wk =   0.0468750
        k(    6) = (   0.8750000  -0.8750000   1.1250000), wk =   0.0000000
        k(    7) = (   0.1250000  -0.1250000   0.3750000), wk =   0.0468750
        k(    8) = (   0.6250000  -0.6250000   0.8750000), wk =   0.0000000
        k(    9) = (  -0.1250000   0.6250000   0.1250000), wk =   0.0937500
        k(   10) = (   0.3750000   0.1250000   0.6250000), wk =   0.0000000
        k(   11) = (   0.6250000  -0.1250000   0.8750000), wk =   0.0937500
        k(   12) = (   1.1250000  -0.6250000   1.3750000), wk =   0.0000000
        k(   13) = (   0.3750000   0.1250000   0.6250000), wk =   0.0937500
        k(   14) = (   0.8750000  -0.3750000   1.1250000), wk =   0.0000000
        k(   15) = (  -0.1250000  -0.8750000   0.1250000), wk =   0.0937500
        k(   16) = (   0.3750000  -1.3750000   0.6250000), wk =   0.0000000
        k(   17) = (  -0.3750000   0.3750000   0.3750000), wk =   0.0468750
        k(   18) = (   0.1250000  -0.1250000   0.8750000), wk =   0.0000000
        k(   19) = (   0.3750000  -0.3750000   1.1250000), wk =   0.0468750
        k(   20) = (   0.8750000  -0.8750000   1.6250000), wk =   0.0000000
        k(   21) = (   0.1250000  -0.1250000   0.1250000), wk =   0.0156250
        k(   22) = (   0.6250000  -0.6250000   0.6250000), wk =   0.0000000
        k(   23) = (  -0.3750000  -0.3750000  -0.1250000), wk =   0.0937500
        k(   24) = (   0.1250000  -0.8750000   0.3750000), wk =   0.0000000
        k(   25) = (  -0.1250000  -0.3750000   0.3750000), wk =   0.0468750
        k(   26) = (   0.3750000  -0.8750000   0.8750000), wk =   0.0000000
        k(   27) = (   0.3750000   0.3750000   0.6250000), wk =   0.0937500
        k(   28) = (   0.8750000  -0.1250000   1.1250000), wk =   0.0000000
        k(   29) = (   0.6250000   0.3750000  -0.3750000), wk =   0.0468750
        k(   30) = (   1.1250000  -0.1250000   0.1250000), wk =   0.0000000
        k(   31) = (   0.1250000   0.1250000   0.3750000), wk =   0.0937500
        k(   32) = (   0.6250000  -0.3750000   0.8750000), wk =   0.0000000
        k(   33) = (   0.3750000   0.1250000  -0.1250000), wk =   0.0468750
        k(   34) = (   0.8750000  -0.3750000   0.3750000), wk =   0.0000000
        k(   35) = (  -0.1250000  -0.6250000  -0.1250000), wk =   0.0468750
        k(   36) = (   0.3750000  -1.1250000   0.3750000), wk =   0.0000000
        k(   37) = (   0.1250000  -0.6250000   0.1250000), wk =   0.0468750
        k(   38) = (   0.6250000  -1.1250000   0.6250000), wk =   0.0000000
        k(   39) = (   0.6250000   0.1250000   0.8750000), wk =   0.0937500
        k(   40) = (   1.1250000  -0.3750000   1.3750000), wk =   0.0000000
        k(   41) = (  -0.8750000   0.1250000   0.6250000), wk =   0.0937500
        k(   42) = (  -0.3750000  -0.3750000   1.1250000), wk =   0.0000000
        k(   43) = (   0.8750000   0.1250000  -0.6250000), wk =   0.0937500
        k(   44) = (   1.3750000  -0.3750000  -0.1250000), wk =   0.0000000
        k(   45) = (   0.3750000  -0.1250000   0.6250000), wk =   0.0937500
        k(   46) = (   0.8750000  -0.6250000   1.1250000), wk =   0.0000000
        k(   47) = (  -0.6250000  -0.1250000   0.3750000), wk =   0.0937500
        k(   48) = (  -0.1250000  -0.6250000   0.8750000), wk =   0.0000000
        k(   49) = (   0.6250000  -0.1250000  -0.3750000), wk =   0.0937500
        k(   50) = (   1.1250000  -0.6250000   0.1250000), wk =   0.0000000
        k(   51) = (  -0.1250000   0.8750000  -0.1250000), wk =   0.0468750
        k(   52) = (   0.3750000   0.3750000   0.3750000), wk =   0.0000000
        k(   53) = (   0.1250000   0.8750000   0.1250000), wk =   0.0468750
        k(   54) = (   0.6250000   0.3750000   0.6250000), wk =   0.0000000
        k(   55) = (   0.3750000  -0.3750000   0.3750000), wk =   0.0156250
        k(   56) = (   0.8750000  -0.8750000   0.8750000), wk =   0.0000000
        k(   57) = (   0.3750000   0.3750000   1.1250000), wk =   0.0937500
        k(   58) = (   0.8750000  -0.1250000   1.6250000), wk =   0.0000000
        k(   59) = (   1.1250000   0.3750000  -0.3750000), wk =   0.0468750
        k(   60) = (   1.6250000  -0.1250000   0.1250000), wk =   0.0000000

     Dense  grid:     2741 G-vectors     FFT dimensions: (  20,  20,  20)

     Estimated max dynamical RAM per process >       0.33MB

     Estimated total allocated dynamical RAM >       1.30MB

     Check: negative/imaginary core charge=   -0.000005    0.000000

     The potential is recalculated from file :
     ./_ph0/silicon.10.326.save/charge-density.dat

     Starting wfc are    8 atomic wfcs

     Band Structure Calculation
     Davidson diagonalization with overlap

     ethr =  1.25E-10,  avg # of iterations = 11.7

     total cpu time spent up to now is        1.6 secs

     End of band structure calculation

          k =-0.1250 0.1250 0.1250 (   338 PWs)   bands (ev):

    -5.6226   4.4132   5.7219   5.7219

          k = 0.3750-0.3750 0.6250 (   359 PWs)   bands (ev):

    -3.4584  -0.6599   3.7567   4.4678

          k =-0.3750 0.3750-0.1250 (   352 PWs)   bands (ev):

    -4.5967   1.4173   3.7373   5.2395

          k = 0.1250-0.1250 0.3750 (   349 PWs)   bands (ev):

    -5.0953   2.7941   4.7128   4.7780

          k = 0.3750-0.3750 0.6250 (   359 PWs)   bands (ev):

    -3.4584  -0.6599   3.7567   4.4678

          k = 0.8750-0.8750 1.1250 (   338 PWs)   bands (ev):

    -5.6226   4.4132   5.7219   5.7219

          k = 0.1250-0.1250 0.3750 (   349 PWs)   bands (ev):

    -5.0953   2.7941   4.7128   4.7780

          k = 0.6250-0.6250 0.8750 (   352 PWs)   bands (ev):

    -4.5967   1.4173   3.7373   5.2395

          k =-0.1250 0.6250 0.1250 (   349 PWs)   bands (ev):

    -4.0639   1.0811   3.3887   3.8380

          k = 0.3750 0.1250 0.6250 (   357 PWs)   bands (ev):

    -3.6491   0.2086   2.7481   4.1140

          k = 0.6250-0.1250 0.8750 (   359 PWs)   bands (ev):

    -2.4249  -0.8830   2.0372   3.1109

          k = 1.1250-0.6250 1.3750 (   352 PWs)   bands (ev):

    -4.5967   1.4173   3.7373   5.2395

          k = 0.3750 0.1250 0.6250 (   357 PWs)   bands (ev):

    -3.6491   0.2086   2.7481   4.1140

          k = 0.8750-0.3750 1.1250 (   349 PWs)   bands (ev):

    -4.0639   1.0811   3.3887   3.8380

          k =-0.1250-0.8750 0.1250 (   358 PWs)   bands (ev):

    -2.5922  -0.7857   2.6446   3.3707

          k = 0.3750-1.3750 0.6250 (   359 PWs)   bands (ev):

    -3.4584  -0.6599   3.7567   4.4678

          k =-0.3750 0.3750 0.3750 (   353 PWs)   bands (ev):

    -4.1646   0.1285   4.9326   4.9326

          k = 0.1250-0.1250 0.8750 (   358 PWs)   bands (ev):

    -2.5922  -0.7857   2.6446   3.3707

          k = 0.3750-0.3750 1.1250 (   361 PWs)   bands (ev):

    -2.9625  -0.5780   2.0949   4.1513

          k = 0.8750-0.8750 1.6250 (   349 PWs)   bands (ev):

    -4.0639   1.0811   3.3887   3.8380

          k = 0.1250-0.1250 0.1250 (   338 PWs)   bands (ev):

    -5.6226   4.4132   5.7219   5.7219

          k = 0.6250-0.6250 0.6250 (   353 PWs)   bands (ev):

    -4.1646   0.1285   4.9326   4.9326

          k =-0.3750-0.3750-0.1250 (   352 PWs)   bands (ev):

    -4.5967   1.4173   3.7373   5.2395

          k = 0.1250-0.8750 0.3750 (   359 PWs)   bands (ev):

    -2.4249  -0.8830   2.0372   3.1109

          k =-0.1250-0.3750 0.3750 (   352 PWs)   bands (ev):

    -4.5967   1.4173   3.7373   5.2395

          k = 0.3750-0.8750 0.8750 (   349 PWs)   bands (ev):

    -4.0639   1.0811   3.3887   3.8380

          k = 0.3750 0.3750 0.6250 (   359 PWs)   bands (ev):

    -3.4584  -0.6599   3.7567   4.4678

          k = 0.8750-0.1250 1.1250 (   358 PWs)   bands (ev):

    -2.5922  -0.7857   2.6446   3.3707

          k = 0.6250 0.3750-0.3750 (   359 PWs)   bands (ev):

    -3.4584  -0.6599   3.7567   4.4678

          k = 1.1250-0.1250 0.1250 (   358 PWs)   bands (ev):

    -2.5922  -0.7857   2.6446   3.3707

          k = 0.1250 0.1250 0.3750 (   349 PWs)   bands (ev):

    -5.0953   2.7941   4.7128   4.7780

          k = 0.6250-0.3750 0.8750 (   357 PWs)   bands (ev):

    -3.6491   0.2086   2.7481   4.1140

          k = 0.3750 0.1250-0.1250 (   349 PWs)   bands (ev):

    -5.0953   2.7941   4.7128   4.7780

          k = 0.8750-0.3750 0.3750 (   361 PWs)   bands (ev):

    -2.9625  -0.5780   2.0949   4.1513

          k =-0.1250-0.6250-0.1250 (   349 PWs)   bands (ev):

    -4.0639   1.0811   3.3887   3.8380

          k = 0.3750-1.1250 0.3750 (   361 PWs)   bands (ev):

    -2.9625  -0.5780   2.0949   4.1513

          k = 0.1250-0.6250 0.1250 (   349 PWs)   bands (ev):

    -4.0639   1.0811   3.3887   3.8380

          k = 0.6250-1.1250 0.6250 (   352 PWs)   bands (ev):

    -4.5967   1.4173   3.7373   5.2395

          k = 0.6250 0.1250 0.8750 (   359 PWs)   bands (ev):

    -2.4249  -0.8830   2.0372   3.1109

          k = 1.1250-0.3750 1.3750 (   357 PWs)   bands (ev):

    -3.6491   0.2086   2.7481   4.1140

          k =-0.8750 0.1250 0.6250 (   359 PWs)   bands (ev):

    -2.4249  -0.8830   2.0372   3.1109

          k =-0.3750-0.3750 1.1250 (   361 PWs)   bands (ev):

    -2.9625  -0.5780   2.0949   4.1513

          k = 0.8750 0.1250-0.6250 (   359 PWs)   bands (ev):

    -2.4249  -0.8830   2.0372   3.1109

          k = 1.3750-0.3750-0.1250 (   357 PWs)   bands (ev):

    -3.6491   0.2086   2.7481   4.1140

          k = 0.3750-0.1250 0.6250 (   357 PWs)   bands (ev):

    -3.6491   0.2086   2.7481   4.1140

          k = 0.8750-0.6250 1.1250 (   349 PWs)   bands (ev):

    -5.0953   2.7941   4.7128   4.7780

          k =-0.6250-0.1250 0.3750 (   357 PWs)   bands (ev):

    -3.6491   0.2086   2.7481   4.1140

          k =-0.1250-0.6250 0.8750 (   359 PWs)   bands (ev):

    -2.4249  -0.8830   2.0372   3.1109

          k = 0.6250-0.1250-0.3750 (   357 PWs)   bands (ev):

    -3.6491   0.2086   2.7481   4.1140

          k = 1.1250-0.6250 0.1250 (   359 PWs)   bands (ev):

    -2.4249  -0.8830   2.0372   3.1109

          k =-0.1250 0.8750-0.1250 (   358 PWs)   bands (ev):

    -2.5922  -0.7857   2.6446   3.3707

          k = 0.3750 0.3750 0.3750 (   353 PWs)   bands (ev):

    -4.1646   0.1285   4.9326   4.9326

          k = 0.1250 0.8750 0.1250 (   358 PWs)   bands (ev):

    -2.5922  -0.7857   2.6446   3.3707

          k = 0.6250 0.3750 0.6250 (   359 PWs)   bands (ev):

    -3.4584  -0.6599   3.7567   4.4678

          k = 0.3750-0.3750 0.3750 (   353 PWs)   bands (ev):

    -4.1646   0.1285   4.9326   4.9326

          k = 0.8750-0.8750 0.8750 (   338 PWs)   bands (ev):

    -5.6226   4.4132   5.7219   5.7219

          k = 0.3750 0.3750 1.1250 (   361 PWs)   bands (ev):

    -2.9625  -0.5780   2.0949   4.1513

          k = 0.8750-0.1250 1.6250 (   359 PWs)   bands (ev):

    -2.4249  -0.8830   2.0372   3.1109

          k = 1.1250 0.3750-0.3750 (   361 PWs)   bands (ev):

    -2.9625  -0.5780   2.0949   4.1513

          k = 1.6250-0.1250 0.1250 (   349 PWs)   bands (ev):

    -5.0953   2.7941   4.7128   4.7780

     highest occupied level (ev):     5.7219

     Writing output data file silicon.10.326.save

                                                                                

     bravais-lattice index     =            2
     lattice parameter (alat)  =      10.3260  a.u.
     unit-cell volume          =     275.2557 (a.u.)^3
     number of atoms/cell      =            2
     number of atomic types    =            1
     kinetic-energy cut-off    =      18.0000  Ry
     charge density cut-off    =      72.0000  Ry
     convergence threshold     =      1.0E-12
     beta                      =       0.7000
     number of iterations used =            4
     Exchange-correlation      = SLA  PW   PBE  PBE ( 1  4  3  4 0 0)


     celldm(1)=   10.32600  celldm(2)=    0.00000  celldm(3)=    0.00000
     celldm(4)=    0.00000  celldm(5)=    0.00000  celldm(6)=    0.00000

     crystal axes: (cart. coord. in units of alat)
               a(1) = ( -0.5000  0.0000  0.5000 )  
               a(2) = (  0.0000  0.5000  0.5000 )  
               a(3) = ( -0.5000  0.5000  0.0000 )  

     reciprocal axes: (cart. coord. in units 2 pi/alat)
               b(1) = ( -1.0000 -1.0000  1.0000 )  
               b(2) = (  1.0000  1.0000  1.0000 )  
               b(3) = ( -1.0000  1.0000 -1.0000 )  


     Atoms inside the unit cell: 

     Cartesian axes

     site n.  atom      mass           positions (alat units)
        1     Si  28.0860   tau(    1) = (    0.00000    0.00000    0.00000  )
        2     Si  28.0860   tau(    2) = (    0.25000    0.25000    0.25000  )

     Computing dynamical matrix for 
                    q = (   0.5000000  -0.5000000   0.5000000 )

     13 Sym.Ops. (with q -> -q+G )


     G cutoff =  194.4630  (    685 G-vectors)     FFT grid: ( 20, 20, 20)
     number of k points=    60

     PseudoPot. # 1 for Si read from file:
     /home/max/quantum_espresso/qe-6.1/pseudo/si_pbe_v1.uspp.F.UPF.txt
     MD5 check sum: a056efeee980c13900f22a371efd63c1
     Pseudo is Ultrasoft + core correction, Zval =  4.0
     Generated by new atomic code, or converted to UPF format
     Using radial grid of  899 points,  6 beta functions with: 
                l(1) =   0
                l(2) =   0
                l(3) =   1
                l(4) =   1
                l(5) =   2
                l(6) =   2
     Q(r) pseudized with  8 coefficients,  rinner =    0.900   0.900   0.900
                                                       0.900   0.900


     Atomic displacements:
     There are   4 irreducible representations

     Representation     1      1 modes -  To be done

     Representation     2      1 modes -  To be done

     Representation     3      2 modes -  To be done

     Representation     4      2 modes -  To be done



     Alpha used in Ewald sum =   0.7000
     PHONON       :    16.72s CPU        19.11s WALL



     Representation #  1 mode #   1

     Self-consistent Calculation

      iter #   1 total cpu time :    19.2 secs   av.it.:   4.8
      thresh= 1.000E-02 alpha_mix =  0.700 |ddv_scf|^2 =  2.485E-05

      iter #   2 total cpu time :    19.4 secs   av.it.:   8.3
      thresh= 4.985E-04 alpha_mix =  0.700 |ddv_scf|^2 =  2.210E-05

      iter #   3 total cpu time :    19.5 secs   av.it.:   7.5
      thresh= 4.701E-04 alpha_mix =  0.700 |ddv_scf|^2 =  4.185E-08

      iter #   4 total cpu time :    19.7 secs   av.it.:   7.5
      thresh= 2.046E-05 alpha_mix =  0.700 |ddv_scf|^2 =  1.410E-10

      iter #   5 total cpu time :    19.9 secs   av.it.:   7.9
      thresh= 1.187E-06 alpha_mix =  0.700 |ddv_scf|^2 =  3.611E-12

      iter #   6 total cpu time :    20.0 secs   av.it.:   7.9
      thresh= 1.900E-07 alpha_mix =  0.700 |ddv_scf|^2 =  5.582E-14

     End of self-consistent calculation

     Convergence has been achieved 


     Representation #  2 mode #   2

     Self-consistent Calculation

      iter #   1 total cpu time :    20.2 secs   av.it.:   5.6
      thresh= 1.000E-02 alpha_mix =  0.700 |ddv_scf|^2 =  3.455E-04

      iter #   2 total cpu time :    20.5 secs   av.it.:   8.3
      thresh= 1.859E-03 alpha_mix =  0.700 |ddv_scf|^2 =  1.065E-03

      iter #   3 total cpu time :    20.6 secs   av.it.:   7.1
      thresh= 3.263E-03 alpha_mix =  0.700 |ddv_scf|^2 =  1.131E-07

      iter #   4 total cpu time :    20.8 secs   av.it.:   8.2
      thresh= 3.363E-05 alpha_mix =  0.700 |ddv_scf|^2 =  7.256E-09

      iter #   5 total cpu time :    21.0 secs   av.it.:   8.5
      thresh= 8.518E-06 alpha_mix =  0.700 |ddv_scf|^2 =  1.297E-10

      iter #   6 total cpu time :    21.1 secs   av.it.:   8.3
      thresh= 1.139E-06 alpha_mix =  0.700 |ddv_scf|^2 =  2.066E-12

      iter #   7 total cpu time :    21.3 secs   av.it.:   7.8
      thresh= 1.437E-07 alpha_mix =  0.700 |ddv_scf|^2 =  3.183E-15

     End of self-consistent calculation

     Convergence has been achieved 


     Representation #  3 modes #   3  4

     Self-consistent Calculation

      iter #   1 total cpu time :    21.6 secs   av.it.:   4.7
      thresh= 1.000E-02 alpha_mix =  0.700 |ddv_scf|^2 =  3.028E-07

      iter #   2 total cpu time :    21.9 secs   av.it.:   9.1
      thresh= 5.503E-05 alpha_mix =  0.700 |ddv_scf|^2 =  2.496E-08

      iter #   3 total cpu time :    22.4 secs   av.it.:   8.4
      thresh= 1.580E-05 alpha_mix =  0.700 |ddv_scf|^2 =  4.923E-10

      iter #   4 total cpu time :    22.7 secs   av.it.:   8.9
      thresh= 2.219E-06 alpha_mix =  0.700 |ddv_scf|^2 =  6.194E-12

      iter #   5 total cpu time :    23.1 secs   av.it.:   8.7
      thresh= 2.489E-07 alpha_mix =  0.700 |ddv_scf|^2 =  3.218E-14

     End of self-consistent calculation

     Convergence has been achieved 


     Representation #  4 modes #   5  6

     Self-consistent Calculation

      iter #   1 total cpu time :    23.4 secs   av.it.:   4.9
      thresh= 1.000E-02 alpha_mix =  0.700 |ddv_scf|^2 =  9.786E-07

      iter #   2 total cpu time :    23.7 secs   av.it.:   9.5
      thresh= 9.893E-05 alpha_mix =  0.700 |ddv_scf|^2 =  7.656E-08

      iter #   3 total cpu time :    24.1 secs   av.it.:   9.3
      thresh= 2.767E-05 alpha_mix =  0.700 |ddv_scf|^2 =  4.894E-09

      iter #   4 total cpu time :    24.6 secs   av.it.:   8.4
      thresh= 6.996E-06 alpha_mix =  0.700 |ddv_scf|^2 =  6.582E-12

      iter #   5 total cpu time :    24.9 secs   av.it.:   8.8
      thresh= 2.566E-07 alpha_mix =  0.700 |ddv_scf|^2 =  2.274E-14

     End of self-consistent calculation

     Convergence has been achieved 

     Number of q in the star =    4
     List of q in the star:
          1   0.500000000  -0.500000000   0.500000000
          2   0.500000000   0.500000000   0.500000000
          3  -0.500000000   0.500000000   0.500000000
          4   0.500000000   0.500000000  -0.500000000

     Diagonalizing the dynamical matrix

     q = (    0.500000000  -0.500000000   0.500000000 ) 

 **************************************************************************
     freq (    1) =       4.539617 [THz] =     151.425339 [cm-1]
     freq (    2) =       4.539617 [THz] =     151.425339 [cm-1]
     freq (    3) =      11.552469 [THz] =     385.348894 [cm-1]
     freq (    4) =      12.169830 [THz] =     405.941840 [cm-1]
     freq (    5) =      14.448650 [THz] =     481.955076 [cm-1]
     freq (    6) =      14.448650 [THz] =     481.955076 [cm-1]
 **************************************************************************

     Calculation of q =    0.0000000   0.5000000   0.0000000

   Info: using nr1, nr2, nr3 values from input

   Info: using nr1, nr2, nr3 values from input

     Parallelization info
     --------------------
     sticks:   dense  smooth     PW     G-vecs:    dense   smooth      PW
     Min          63      63     27                  684      684     175
     Max          64      64     28                  688      688     176
     Sum         253     253    109                 2741     2741     701



     bravais-lattice index     =            2
     lattice parameter (alat)  =      10.3260  a.u.
     unit-cell volume          =     275.2557 (a.u.)^3
     number of atoms/cell      =            2
     number of atomic types    =            1
     number of electrons       =         8.00
     number of Kohn-Sham states=            4
     kinetic-energy cutoff     =      18.0000  Ry
     charge density cutoff     =      72.0000  Ry
     Exchange-correlation      = SLA  PW   PBE  PBE ( 1  4  3  4 0 0)

     celldm(1)=  10.326000  celldm(2)=   0.000000  celldm(3)=   0.000000
     celldm(4)=   0.000000  celldm(5)=   0.000000  celldm(6)=   0.000000

     crystal axes: (cart. coord. in units of alat)
               a(1) = (  -0.500000   0.000000   0.500000 )  
               a(2) = (   0.000000   0.500000   0.500000 )  
               a(3) = (  -0.500000   0.500000   0.000000 )  

     reciprocal axes: (cart. coord. in units 2 pi/alat)
               b(1) = ( -1.000000 -1.000000  1.000000 )  
               b(2) = (  1.000000  1.000000  1.000000 )  
               b(3) = ( -1.000000  1.000000 -1.000000 )  


     PseudoPot. # 1 for Si read from file:
     /home/max/quantum_espresso/qe-6.1/pseudo/si_pbe_v1.uspp.F.UPF.txt
     MD5 check sum: a056efeee980c13900f22a371efd63c1
     Pseudo is Ultrasoft + core correction, Zval =  4.0
     Generated by new atomic code, or converted to UPF format
     Using radial grid of  899 points,  6 beta functions with: 
                l(1) =   0
                l(2) =   0
                l(3) =   1
                l(4) =   1
                l(5) =   2
                l(6) =   2
     Q(r) pseudized with  8 coefficients,  rinner =    0.900   0.900   0.900
                                                       0.900   0.900

     atomic species   valence    mass     pseudopotential
        Si             4.00    28.08600     Si( 1.00)

     48 Sym. Ops., with inversion, found



   Cartesian axes

     site n.     atom                  positions (alat units)
         1           Si  tau(   1) = (   0.0000000   0.0000000   0.0000000  )
         2           Si  tau(   2) = (   0.2500000   0.2500000   0.2500000  )

     number of k points=    80
                       cart. coord. in units 2pi/alat
        k(    1) = (  -0.1250000   0.1250000   0.1250000), wk =   0.0312500
        k(    2) = (  -0.1250000   0.6250000   0.1250000), wk =   0.0000000
        k(    3) = (  -0.3750000   0.3750000  -0.1250000), wk =   0.0625000
        k(    4) = (  -0.3750000   0.8750000  -0.1250000), wk =   0.0000000
        k(    5) = (   0.3750000  -0.3750000   0.6250000), wk =   0.0625000
        k(    6) = (   0.3750000   0.1250000   0.6250000), wk =   0.0000000
        k(    7) = (   0.1250000  -0.1250000   0.3750000), wk =   0.0625000
        k(    8) = (   0.1250000   0.3750000   0.3750000), wk =   0.0000000
        k(    9) = (  -0.1250000   0.6250000   0.1250000), wk =   0.0312500
        k(   10) = (  -0.1250000   1.1250000   0.1250000), wk =   0.0000000
        k(   11) = (   0.6250000  -0.1250000   0.8750000), wk =   0.0625000
        k(   12) = (   0.6250000   0.3750000   0.8750000), wk =   0.0000000
        k(   13) = (   0.3750000   0.1250000   0.6250000), wk =   0.0625000
        k(   14) = (   0.3750000   0.6250000   0.6250000), wk =   0.0000000
        k(   15) = (  -0.1250000  -0.8750000   0.1250000), wk =   0.0312500
        k(   16) = (  -0.1250000  -0.3750000   0.1250000), wk =   0.0000000
        k(   17) = (  -0.3750000   0.3750000   0.3750000), wk =   0.0312500
        k(   18) = (  -0.3750000   0.8750000   0.3750000), wk =   0.0000000
        k(   19) = (   0.3750000  -0.3750000   1.1250000), wk =   0.0625000
        k(   20) = (   0.3750000   0.1250000   1.1250000), wk =   0.0000000
        k(   21) = (  -0.1250000  -0.1250000   0.1250000), wk =   0.0312500
        k(   22) = (  -0.1250000   0.3750000   0.1250000), wk =   0.0000000
        k(   23) = (   0.1250000  -0.3750000   0.3750000), wk =   0.0625000
        k(   24) = (   0.1250000   0.1250000   0.3750000), wk =   0.0000000
        k(   25) = (   0.3750000  -0.1250000   0.3750000), wk =   0.0312500
        k(   26) = (   0.3750000   0.3750000   0.3750000), wk =   0.0000000
        k(   27) = (   0.3750000   0.1250000   0.3750000), wk =   0.0312500
        k(   28) = (   0.3750000   0.6250000   0.3750000), wk =   0.0000000
        k(   29) = (  -0.6250000   0.3750000  -0.3750000), wk =   0.0625000
        k(   30) = (  -0.6250000   0.8750000  -0.3750000), wk =   0.0000000
        k(   31) = (  -0.3750000   0.6250000  -0.3750000), wk =   0.0312500
        k(   32) = (  -0.3750000   1.1250000  -0.3750000), wk =   0.0000000
        k(   33) = (  -0.3750000  -0.6250000  -0.3750000), wk =   0.0312500
        k(   34) = (  -0.3750000  -0.1250000  -0.3750000), wk =   0.0000000
        k(   35) = (  -0.3750000   0.1250000  -0.1250000), wk =   0.0625000
        k(   36) = (  -0.3750000   0.6250000  -0.1250000), wk =   0.0000000
        k(   37) = (  -0.1250000   0.3750000  -0.1250000), wk =   0.0312500
        k(   38) = (  -0.1250000   0.8750000  -0.1250000), wk =   0.0000000
        k(   39) = (  -0.1250000  -0.3750000  -0.1250000), wk =   0.0312500
        k(   40) = (  -0.1250000   0.1250000  -0.1250000), wk =   0.0000000
        k(   41) = (  -0.1250000  -0.6250000   0.1250000), wk =   0.0312500
        k(   42) = (  -0.1250000  -0.1250000   0.1250000), wk =   0.0000000
        k(   43) = (   0.6250000  -0.1250000  -0.1250000), wk =   0.0625000
        k(   44) = (   0.6250000   0.3750000  -0.1250000), wk =   0.0000000
        k(   45) = (   0.6250000   0.1250000   0.1250000), wk =   0.0625000
        k(   46) = (   0.6250000   0.6250000   0.1250000), wk =   0.0000000
        k(   47) = (  -0.8750000   0.1250000  -0.6250000), wk =   0.0625000
        k(   48) = (  -0.8750000   0.6250000  -0.6250000), wk =   0.0000000
        k(   49) = (  -0.1250000   0.6250000  -0.8750000), wk =   0.0625000
        k(   50) = (  -0.1250000   1.1250000  -0.8750000), wk =   0.0000000
        k(   51) = (  -0.1250000   0.8750000  -0.6250000), wk =   0.0625000
        k(   52) = (  -0.1250000   1.3750000  -0.6250000), wk =   0.0000000
        k(   53) = (  -0.1250000  -0.8750000  -0.6250000), wk =   0.0625000
        k(   54) = (  -0.1250000  -0.3750000  -0.6250000), wk =   0.0000000
        k(   55) = (   0.8750000  -0.6250000   0.1250000), wk =   0.0625000
        k(   56) = (   0.8750000  -0.1250000   0.1250000), wk =   0.0000000
        k(   57) = (  -0.6250000  -0.1250000  -0.3750000), wk =   0.0625000
        k(   58) = (  -0.6250000   0.3750000  -0.3750000), wk =   0.0000000
        k(   59) = (   0.1250000   0.3750000  -0.6250000), wk =   0.0625000
        k(   60) = (   0.1250000   0.8750000  -0.6250000), wk =   0.0000000
        k(   61) = (   0.1250000   0.6250000  -0.3750000), wk =   0.0625000
        k(   62) = (   0.1250000   1.1250000  -0.3750000), wk =   0.0000000
        k(   63) = (   0.1250000  -0.6250000  -0.3750000), wk =   0.0625000
        k(   64) = (   0.1250000  -0.1250000  -0.3750000), wk =   0.0000000
        k(   65) = (   0.6250000  -0.3750000  -0.1250000), wk =   0.0625000
        k(   66) = (   0.6250000   0.1250000  -0.1250000), wk =   0.0000000
        k(   67) = (  -0.1250000   0.8750000   0.1250000), wk =   0.0312500
        k(   68) = (  -0.1250000   1.3750000   0.1250000), wk =   0.0000000
        k(   69) = (  -0.8750000  -0.1250000  -0.1250000), wk =   0.0625000
        k(   70) = (  -0.8750000   0.3750000  -0.1250000), wk =   0.0000000
        k(   71) = (  -0.8750000   0.1250000   0.1250000), wk =   0.0625000
        k(   72) = (  -0.8750000   0.6250000   0.1250000), wk =   0.0000000
        k(   73) = (  -0.3750000  -0.3750000   0.3750000), wk =   0.0312500
        k(   74) = (  -0.3750000   0.1250000   0.3750000), wk =   0.0000000
        k(   75) = (  -1.1250000   0.3750000  -0.3750000), wk =   0.0625000
        k(   76) = (  -1.1250000   0.8750000  -0.3750000), wk =   0.0000000
        k(   77) = (  -0.3750000   1.1250000  -0.3750000), wk =   0.0312500
        k(   78) = (  -0.3750000   1.6250000  -0.3750000), wk =   0.0000000
        k(   79) = (  -0.3750000  -1.1250000  -0.3750000), wk =   0.0312500
        k(   80) = (  -0.3750000  -0.6250000  -0.3750000), wk =   0.0000000

     Dense  grid:     2741 G-vectors     FFT dimensions: (  20,  20,  20)

     Estimated max dynamical RAM per process >       0.33MB

     Estimated total allocated dynamical RAM >       1.30MB

     Check: negative/imaginary core charge=   -0.000005    0.000000

     The potential is recalculated from file :
     ./_ph0/silicon.10.326.save/charge-density.dat

     Starting wfc are    8 atomic wfcs

     Band Structure Calculation
     Davidson diagonalization with overlap

     ethr =  1.25E-10,  avg # of iterations = 11.7

     total cpu time spent up to now is        2.3 secs

     End of band structure calculation

          k =-0.1250 0.1250 0.1250 (   338 PWs)   bands (ev):

    -5.6226   4.4132   5.7219   5.7219

          k =-0.1250 0.6250 0.1250 (   349 PWs)   bands (ev):

    -4.0639   1.0811   3.3887   3.8380

          k =-0.3750 0.3750-0.1250 (   352 PWs)   bands (ev):

    -4.5967   1.4173   3.7373   5.2395

          k =-0.3750 0.8750-0.1250 (   359 PWs)   bands (ev):

    -2.4249  -0.8830   2.0372   3.1109

          k = 0.3750-0.3750 0.6250 (   359 PWs)   bands (ev):

    -3.4584  -0.6599   3.7567   4.4678

          k = 0.3750 0.1250 0.6250 (   357 PWs)   bands (ev):

    -3.6491   0.2086   2.7481   4.1140

          k = 0.1250-0.1250 0.3750 (   349 PWs)   bands (ev):

    -5.0953   2.7941   4.7128   4.7780

          k = 0.1250 0.3750 0.3750 (   352 PWs)   bands (ev):

    -4.5967   1.4173   3.7373   5.2395

          k =-0.1250 0.6250 0.1250 (   349 PWs)   bands (ev):

    -4.0639   1.0811   3.3887   3.8380

          k =-0.1250 1.1250 0.1250 (   358 PWs)   bands (ev):

    -2.5922  -0.7857   2.6446   3.3707

          k = 0.6250-0.1250 0.8750 (   359 PWs)   bands (ev):

    -2.4249  -0.8830   2.0372   3.1109

          k = 0.6250 0.3750 0.8750 (   357 PWs)   bands (ev):

    -3.6491   0.2086   2.7481   4.1140

          k = 0.3750 0.1250 0.6250 (   357 PWs)   bands (ev):

    -3.6491   0.2086   2.7481   4.1140

          k = 0.3750 0.6250 0.6250 (   359 PWs)   bands (ev):

    -3.4584  -0.6599   3.7567   4.4678

          k =-0.1250-0.8750 0.1250 (   358 PWs)   bands (ev):

    -2.5922  -0.7857   2.6446   3.3707

          k =-0.1250-0.3750 0.1250 (   349 PWs)   bands (ev):

    -5.0953   2.7941   4.7128   4.7780

          k =-0.3750 0.3750 0.3750 (   353 PWs)   bands (ev):

    -4.1646   0.1285   4.9326   4.9326

          k =-0.3750 0.8750 0.3750 (   361 PWs)   bands (ev):

    -2.9625  -0.5780   2.0949   4.1513

          k = 0.3750-0.3750 1.1250 (   361 PWs)   bands (ev):

    -2.9625  -0.5780   2.0949   4.1513

          k = 0.3750 0.1250 1.1250 (   359 PWs)   bands (ev):

    -2.4249  -0.8830   2.0372   3.1109

          k =-0.1250-0.1250 0.1250 (   338 PWs)   bands (ev):

    -5.6226   4.4132   5.7219   5.7219

          k =-0.1250 0.3750 0.1250 (   349 PWs)   bands (ev):

    -5.0953   2.7941   4.7128   4.7780

          k = 0.1250-0.3750 0.3750 (   352 PWs)   bands (ev):

    -4.5967   1.4173   3.7373   5.2395

          k = 0.1250 0.1250 0.3750 (   349 PWs)   bands (ev):

    -5.0953   2.7941   4.7128   4.7780

          k = 0.3750-0.1250 0.3750 (   352 PWs)   bands (ev):

    -4.5967   1.4173   3.7373   5.2395

          k = 0.3750 0.3750 0.3750 (   353 PWs)   bands (ev):

    -4.1646   0.1285   4.9326   4.9326

          k = 0.3750 0.1250 0.3750 (   352 PWs)   bands (ev):

    -4.5967   1.4173   3.7373   5.2395

          k = 0.3750 0.6250 0.3750 (   359 PWs)   bands (ev):

    -3.4584  -0.6599   3.7567   4.4678

          k =-0.6250 0.3750-0.3750 (   359 PWs)   bands (ev):

    -3.4584  -0.6599   3.7567   4.4678

          k =-0.6250 0.8750-0.3750 (   357 PWs)   bands (ev):

    -3.6491   0.2086   2.7481   4.1140

          k =-0.3750 0.6250-0.3750 (   359 PWs)   bands (ev):

    -3.4584  -0.6599   3.7567   4.4678

          k =-0.3750 1.1250-0.3750 (   361 PWs)   bands (ev):

    -2.9625  -0.5780   2.0949   4.1513

          k =-0.3750-0.6250-0.3750 (   359 PWs)   bands (ev):

    -3.4584  -0.6599   3.7567   4.4678

          k =-0.3750-0.1250-0.3750 (   352 PWs)   bands (ev):

    -4.5967   1.4173   3.7373   5.2395

          k =-0.3750 0.1250-0.1250 (   349 PWs)   bands (ev):

    -5.0953   2.7941   4.7128   4.7780

          k =-0.3750 0.6250-0.1250 (   357 PWs)   bands (ev):

    -3.6491   0.2086   2.7481   4.1140

          k =-0.1250 0.3750-0.1250 (   349 PWs)   bands (ev):

    -5.0953   2.7941   4.7128   4.7780

          k =-0.1250 0.8750-0.1250 (   358 PWs)   bands (ev):

    -2.5922  -0.7857   2.6446   3.3707

          k =-0.1250-0.3750-0.1250 (   349 PWs)   bands (ev):

    -5.0953   2.7941   4.7128   4.7780

          k =-0.1250 0.1250-0.1250 (   338 PWs)   bands (ev):

    -5.6226   4.4132   5.7219   5.7219

          k =-0.1250-0.6250 0.1250 (   349 PWs)   bands (ev):

    -4.0639   1.0811   3.3887   3.8380

          k =-0.1250-0.1250 0.1250 (   338 PWs)   bands (ev):

    -5.6226   4.4132   5.7219   5.7219

          k = 0.6250-0.1250-0.1250 (   349 PWs)   bands (ev):

    -4.0639   1.0811   3.3887   3.8380

          k = 0.6250 0.3750-0.1250 (   357 PWs)   bands (ev):

    -3.6491   0.2086   2.7481   4.1140

          k = 0.6250 0.1250 0.1250 (   349 PWs)   bands (ev):

    -4.0639   1.0811   3.3887   3.8380

          k = 0.6250 0.6250 0.1250 (   361 PWs)   bands (ev):

    -2.9625  -0.5780   2.0949   4.1513

          k =-0.8750 0.1250-0.6250 (   359 PWs)   bands (ev):

    -2.4249  -0.8830   2.0372   3.1109

          k =-0.8750 0.6250-0.6250 (   352 PWs)   bands (ev):

    -4.5967   1.4173   3.7373   5.2395

          k =-0.1250 0.6250-0.8750 (   359 PWs)   bands (ev):

    -2.4249  -0.8830   2.0372   3.1109

          k =-0.1250 1.1250-0.8750 (   358 PWs)   bands (ev):

    -2.5922  -0.7857   2.6446   3.3707

          k =-0.1250 0.8750-0.6250 (   359 PWs)   bands (ev):

    -2.4249  -0.8830   2.0372   3.1109

          k =-0.1250 1.3750-0.6250 (   361 PWs)   bands (ev):

    -2.9625  -0.5780   2.0949   4.1513

          k =-0.1250-0.8750-0.6250 (   359 PWs)   bands (ev):

    -2.4249  -0.8830   2.0372   3.1109

          k =-0.1250-0.3750-0.6250 (   357 PWs)   bands (ev):

    -3.6491   0.2086   2.7481   4.1140

          k = 0.8750-0.6250 0.1250 (   359 PWs)   bands (ev):

    -2.4249  -0.8830   2.0372   3.1109

          k = 0.8750-0.1250 0.1250 (   358 PWs)   bands (ev):

    -2.5922  -0.7857   2.6446   3.3707

          k =-0.6250-0.1250-0.3750 (   357 PWs)   bands (ev):

    -3.6491   0.2086   2.7481   4.1140

          k =-0.6250 0.3750-0.3750 (   359 PWs)   bands (ev):

    -3.4584  -0.6599   3.7567   4.4678

          k = 0.1250 0.3750-0.6250 (   357 PWs)   bands (ev):

    -3.6491   0.2086   2.7481   4.1140

          k = 0.1250 0.8750-0.6250 (   359 PWs)   bands (ev):

    -2.4249  -0.8830   2.0372   3.1109

          k = 0.1250 0.6250-0.3750 (   357 PWs)   bands (ev):

    -3.6491   0.2086   2.7481   4.1140

          k = 0.1250 1.1250-0.3750 (   359 PWs)   bands (ev):

    -2.4249  -0.8830   2.0372   3.1109

          k = 0.1250-0.6250-0.3750 (   357 PWs)   bands (ev):

    -3.6491   0.2086   2.7481   4.1140

          k = 0.1250-0.1250-0.3750 (   349 PWs)   bands (ev):

    -5.0953   2.7941   4.7128   4.7780

          k = 0.6250-0.3750-0.1250 (   357 PWs)   bands (ev):

    -3.6491   0.2086   2.7481   4.1140

          k = 0.6250 0.1250-0.1250 (   349 PWs)   bands (ev):

    -4.0639   1.0811   3.3887   3.8380

          k =-0.1250 0.8750 0.1250 (   358 PWs)   bands (ev):

    -2.5922  -0.7857   2.6446   3.3707

          k =-0.1250 1.3750 0.1250 (   349 PWs)   bands (ev):

    -4.0639   1.0811   3.3887   3.8380

          k =-0.8750-0.1250-0.1250 (   358 PWs)   bands (ev):

    -2.5922  -0.7857   2.6446   3.3707

          k =-0.8750 0.3750-0.1250 (   359 PWs)   bands (ev):

    -2.4249  -0.8830   2.0372   3.1109

          k =-0.8750 0.1250 0.1250 (   358 PWs)   bands (ev):

    -2.5922  -0.7857   2.6446   3.3707

          k =-0.8750 0.6250 0.1250 (   359 PWs)   bands (ev):

    -2.4249  -0.8830   2.0372   3.1109

          k =-0.3750-0.3750 0.3750 (   353 PWs)   bands (ev):

    -4.1646   0.1285   4.9326   4.9326

          k =-0.3750 0.1250 0.3750 (   352 PWs)   bands (ev):

    -4.5967   1.4173   3.7373   5.2395

          k =-1.1250 0.3750-0.3750 (   361 PWs)   bands (ev):

    -2.9625  -0.5780   2.0949   4.1513

          k =-1.1250 0.8750-0.3750 (   349 PWs)   bands (ev):

    -4.0639   1.0811   3.3887   3.8380

          k =-0.3750 1.1250-0.3750 (   361 PWs)   bands (ev):

    -2.9625  -0.5780   2.0949   4.1513

          k =-0.3750 1.6250-0.3750 (   353 PWs)   bands (ev):

    -4.1646   0.1285   4.9326   4.9326

          k =-0.3750-1.1250-0.3750 (   361 PWs)   bands (ev):

    -2.9625  -0.5780   2.0949   4.1513

          k =-0.3750-0.6250-0.3750 (   359 PWs)   bands (ev):

    -3.4584  -0.6599   3.7567   4.4678

     highest occupied level (ev):     5.7219

     Writing output data file silicon.10.326.save

                                                                                

     bravais-lattice index     =            2
     lattice parameter (alat)  =      10.3260  a.u.
     unit-cell volume          =     275.2557 (a.u.)^3
     number of atoms/cell      =            2
     number of atomic types    =            1
     kinetic-energy cut-off    =      18.0000  Ry
     charge density cut-off    =      72.0000  Ry
     convergence threshold     =      1.0E-12
     beta                      =       0.7000
     number of iterations used =            4
     Exchange-correlation      = SLA  PW   PBE  PBE ( 1  4  3  4 0 0)


     celldm(1)=   10.32600  celldm(2)=    0.00000  celldm(3)=    0.00000
     celldm(4)=    0.00000  celldm(5)=    0.00000  celldm(6)=    0.00000

     crystal axes: (cart. coord. in units of alat)
               a(1) = ( -0.5000  0.0000  0.5000 )  
               a(2) = (  0.0000  0.5000  0.5000 )  
               a(3) = ( -0.5000  0.5000  0.0000 )  

     reciprocal axes: (cart. coord. in units 2 pi/alat)
               b(1) = ( -1.0000 -1.0000  1.0000 )  
               b(2) = (  1.0000  1.0000  1.0000 )  
               b(3) = ( -1.0000  1.0000 -1.0000 )  


     Atoms inside the unit cell: 

     Cartesian axes

     site n.  atom      mass           positions (alat units)
        1     Si  28.0860   tau(    1) = (    0.00000    0.00000    0.00000  )
        2     Si  28.0860   tau(    2) = (    0.25000    0.25000    0.25000  )

     Computing dynamical matrix for 
                    q = (   0.0000000   0.5000000   0.0000000 )

      8 Sym.Ops. (no q -> -q+G )


     G cutoff =  194.4630  (    685 G-vectors)     FFT grid: ( 20, 20, 20)
     number of k points=    80

     PseudoPot. # 1 for Si read from file:
     /home/max/quantum_espresso/qe-6.1/pseudo/si_pbe_v1.uspp.F.UPF.txt
     MD5 check sum: a056efeee980c13900f22a371efd63c1
     Pseudo is Ultrasoft + core correction, Zval =  4.0
     Generated by new atomic code, or converted to UPF format
     Using radial grid of  899 points,  6 beta functions with: 
                l(1) =   0
                l(2) =   0
                l(3) =   1
                l(4) =   1
                l(5) =   2
                l(6) =   2
     Q(r) pseudized with  8 coefficients,  rinner =    0.900   0.900   0.900
                                                       0.900   0.900

     Mode symmetry, C_4v (4mm)  point group:


     Atomic displacements:
     There are   4 irreducible representations

     Representation     1      1 modes -A_1  G_1 D_1  To be done

     Representation     2      1 modes -B_2  G_4 D_2'  To be done

     Representation     3      2 modes -E    G_5 D_5  To be done

     Representation     4      2 modes -E    G_5 D_5  To be done



     Alpha used in Ewald sum =   0.7000
     PHONON       :    23.04s CPU        25.88s WALL



     Representation #  1 mode #   1

     Self-consistent Calculation

      iter #   1 total cpu time :    26.1 secs   av.it.:   5.8
      thresh= 1.000E-02 alpha_mix =  0.700 |ddv_scf|^2 =  2.977E-03

      iter #   2 total cpu time :    26.4 secs   av.it.:   7.7
      thresh= 5.456E-03 alpha_mix =  0.700 |ddv_scf|^2 =  3.912E-02

      iter #   3 total cpu time :    26.6 secs   av.it.:   6.7
      thresh= 1.000E-02 alpha_mix =  0.700 |ddv_scf|^2 =  1.375E-07

      iter #   4 total cpu time :    26.8 secs   av.it.:   8.2
      thresh= 3.709E-05 alpha_mix =  0.700 |ddv_scf|^2 =  1.249E-08

      iter #   5 total cpu time :    27.0 secs   av.it.:   7.8
      thresh= 1.117E-05 alpha_mix =  0.700 |ddv_scf|^2 =  7.367E-10

      iter #   6 total cpu time :    27.2 secs   av.it.:   7.8
      thresh= 2.714E-06 alpha_mix =  0.700 |ddv_scf|^2 =  2.616E-12

      iter #   7 total cpu time :    27.4 secs   av.it.:   8.0
      thresh= 1.618E-07 alpha_mix =  0.700 |ddv_scf|^2 =  5.212E-13

     End of self-consistent calculation

     Convergence has been achieved 


     Representation #  2 mode #   2

     Self-consistent Calculation

      iter #   1 total cpu time :    27.6 secs   av.it.:   4.9
      thresh= 1.000E-02 alpha_mix =  0.700 |ddv_scf|^2 =  5.510E-06

      iter #   2 total cpu time :    27.8 secs   av.it.:   8.7
      thresh= 2.347E-04 alpha_mix =  0.700 |ddv_scf|^2 =  1.331E-06

      iter #   3 total cpu time :    28.0 secs   av.it.:   8.5
      thresh= 1.154E-04 alpha_mix =  0.700 |ddv_scf|^2 =  4.239E-08

      iter #   4 total cpu time :    28.3 secs   av.it.:   8.2
      thresh= 2.059E-05 alpha_mix =  0.700 |ddv_scf|^2 =  6.878E-10

      iter #   5 total cpu time :    28.6 secs   av.it.:   8.5
      thresh= 2.623E-06 alpha_mix =  0.700 |ddv_scf|^2 =  6.855E-12

      iter #   6 total cpu time :    28.8 secs   av.it.:   7.9
      thresh= 2.618E-07 alpha_mix =  0.700 |ddv_scf|^2 =  6.949E-14

     End of self-consistent calculation

     Convergence has been achieved 


     Representation #  3 modes #   3  4

     Self-consistent Calculation

      iter #   1 total cpu time :    29.1 secs   av.it.:   5.0
      thresh= 1.000E-02 alpha_mix =  0.700 |ddv_scf|^2 =  1.024E-06

      iter #   2 total cpu time :    29.6 secs   av.it.:   9.7
      thresh= 1.012E-04 alpha_mix =  0.700 |ddv_scf|^2 =  1.268E-07

      iter #   3 total cpu time :    30.0 secs   av.it.:   9.5
      thresh= 3.561E-05 alpha_mix =  0.700 |ddv_scf|^2 =  6.663E-09

      iter #   4 total cpu time :    30.6 secs   av.it.:   8.8
      thresh= 8.163E-06 alpha_mix =  0.700 |ddv_scf|^2 =  9.346E-12

      iter #   5 total cpu time :    31.1 secs   av.it.:   9.1
      thresh= 3.057E-07 alpha_mix =  0.700 |ddv_scf|^2 =  2.846E-13

     End of self-consistent calculation

     Convergence has been achieved 


     Representation #  4 modes #   5  6

     Self-consistent Calculation

      iter #   1 total cpu time :    31.4 secs   av.it.:   5.0
      thresh= 1.000E-02 alpha_mix =  0.700 |ddv_scf|^2 =  9.081E-07

      iter #   2 total cpu time :    31.9 secs   av.it.:   9.8
      thresh= 9.529E-05 alpha_mix =  0.700 |ddv_scf|^2 =  1.150E-07

      iter #   3 total cpu time :    32.5 secs   av.it.:   9.4
      thresh= 3.391E-05 alpha_mix =  0.700 |ddv_scf|^2 =  6.127E-09

      iter #   4 total cpu time :    33.0 secs   av.it.:   8.9
      thresh= 7.828E-06 alpha_mix =  0.700 |ddv_scf|^2 =  1.402E-11

      iter #   5 total cpu time :    33.4 secs   av.it.:   9.2
      thresh= 3.744E-07 alpha_mix =  0.700 |ddv_scf|^2 =  4.297E-14

     End of self-consistent calculation

     Convergence has been achieved 

     Number of q in the star =    6
     List of q in the star:
          1   0.000000000   0.500000000   0.000000000
          2   0.000000000  -0.500000000   0.000000000
          3   0.500000000   0.000000000   0.000000000
          4   0.000000000   0.000000000   0.500000000
          5   0.000000000   0.000000000  -0.500000000
          6  -0.500000000   0.000000000   0.000000000

     Diagonalizing the dynamical matrix

     q = (    0.000000000   0.500000000   0.000000000 ) 

 **************************************************************************
     freq (    1) =       4.212851 [THz] =     140.525592 [cm-1]
     freq (    2) =       4.212851 [THz] =     140.525592 [cm-1]
     freq (    3) =       7.199356 [THz] =     240.144665 [cm-1]
     freq (    4) =      13.746769 [THz] =     458.542840 [cm-1]
     freq (    5) =      13.746769 [THz] =     458.542840 [cm-1]
     freq (    6) =      14.351928 [THz] =     478.728803 [cm-1]
 **************************************************************************

     Mode symmetry, C_4v (4mm)  point group:

     freq (  1 -  2) =        140.5  [cm-1]   --> E    G_5 D_5       
     freq (  3 -  3) =        240.1  [cm-1]   --> A_1  G_1 D_1       
     freq (  4 -  5) =        458.5  [cm-1]   --> E    G_5 D_5       
     freq (  6 -  6) =        478.7  [cm-1]   --> B_2  G_4 D_2'      

     Calculation of q =    0.7500000  -0.2500000   0.7500000

   Info: using nr1, nr2, nr3 values from input

   Info: using nr1, nr2, nr3 values from input

     Parallelization info
     --------------------
     sticks:   dense  smooth     PW     G-vecs:    dense   smooth      PW
     Min          63      63     30                  684      684     216
     Max          64      64     31                  688      688     218
     Sum         253     253    121                 2741     2741     869



     bravais-lattice index     =            2
     lattice parameter (alat)  =      10.3260  a.u.
     unit-cell volume          =     275.2557 (a.u.)^3
     number of atoms/cell      =            2
     number of atomic types    =            1
     number of electrons       =         8.00
     number of Kohn-Sham states=            4
     kinetic-energy cutoff     =      18.0000  Ry
     charge density cutoff     =      72.0000  Ry
     Exchange-correlation      = SLA  PW   PBE  PBE ( 1  4  3  4 0 0)

     celldm(1)=  10.326000  celldm(2)=   0.000000  celldm(3)=   0.000000
     celldm(4)=   0.000000  celldm(5)=   0.000000  celldm(6)=   0.000000

     crystal axes: (cart. coord. in units of alat)
               a(1) = (  -0.500000   0.000000   0.500000 )  
               a(2) = (   0.000000   0.500000   0.500000 )  
               a(3) = (  -0.500000   0.500000   0.000000 )  

     reciprocal axes: (cart. coord. in units 2 pi/alat)
               b(1) = ( -1.000000 -1.000000  1.000000 )  
               b(2) = (  1.000000  1.000000  1.000000 )  
               b(3) = ( -1.000000  1.000000 -1.000000 )  


     PseudoPot. # 1 for Si read from file:
     /home/max/quantum_espresso/qe-6.1/pseudo/si_pbe_v1.uspp.F.UPF.txt
     MD5 check sum: a056efeee980c13900f22a371efd63c1
     Pseudo is Ultrasoft + core correction, Zval =  4.0
     Generated by new atomic code, or converted to UPF format
     Using radial grid of  899 points,  6 beta functions with: 
                l(1) =   0
                l(2) =   0
                l(3) =   1
                l(4) =   1
                l(5) =   2
                l(6) =   2
     Q(r) pseudized with  8 coefficients,  rinner =    0.900   0.900   0.900
                                                       0.900   0.900

     atomic species   valence    mass     pseudopotential
        Si             4.00    28.08600     Si( 1.00)

     48 Sym. Ops., with inversion, found



   Cartesian axes

     site n.     atom                  positions (alat units)
         1           Si  tau(   1) = (   0.0000000   0.0000000   0.0000000  )
         2           Si  tau(   2) = (   0.2500000   0.2500000   0.2500000  )

     number of k points=   288

     Number of k-points >= 100: set verbosity='high' to print them.

     Dense  grid:     2741 G-vectors     FFT dimensions: (  20,  20,  20)

     Estimated max dynamical RAM per process >       0.33MB

     Estimated total allocated dynamical RAM >       1.30MB

     Check: negative/imaginary core charge=   -0.000005    0.000000

     The potential is recalculated from file :
     ./_ph0/silicon.10.326.save/charge-density.dat

     Starting wfc are    8 atomic wfcs

     Band Structure Calculation
     Davidson diagonalization with overlap

     ethr =  1.25E-10,  avg # of iterations = 11.6

     total cpu time spent up to now is        4.5 secs

     End of band structure calculation

     Number of k-points >= 100: set verbosity='high' to print the bands.

     highest occupied level (ev):     5.7219

     Writing output data file silicon.10.326.save

                                                                                

     bravais-lattice index     =            2
     lattice parameter (alat)  =      10.3260  a.u.
     unit-cell volume          =     275.2557 (a.u.)^3
     number of atoms/cell      =            2
     number of atomic types    =            1
     kinetic-energy cut-off    =      18.0000  Ry
     charge density cut-off    =      72.0000  Ry
     convergence threshold     =      1.0E-12
     beta                      =       0.7000
     number of iterations used =            4
     Exchange-correlation      = SLA  PW   PBE  PBE ( 1  4  3  4 0 0)


     celldm(1)=   10.32600  celldm(2)=    0.00000  celldm(3)=    0.00000
     celldm(4)=    0.00000  celldm(5)=    0.00000  celldm(6)=    0.00000

     crystal axes: (cart. coord. in units of alat)
               a(1) = ( -0.5000  0.0000  0.5000 )  
               a(2) = (  0.0000  0.5000  0.5000 )  
               a(3) = ( -0.5000  0.5000  0.0000 )  

     reciprocal axes: (cart. coord. in units 2 pi/alat)
               b(1) = ( -1.0000 -1.0000  1.0000 )  
               b(2) = (  1.0000  1.0000  1.0000 )  
               b(3) = ( -1.0000  1.0000 -1.0000 )  


     Atoms inside the unit cell: 

     Cartesian axes

     site n.  atom      mass           positions (alat units)
        1     Si  28.0860   tau(    1) = (    0.00000    0.00000    0.00000  )
        2     Si  28.0860   tau(    2) = (    0.25000    0.25000    0.25000  )

     Computing dynamical matrix for 
                    q = (   0.7500000  -0.2500000   0.7500000 )

      2 Sym.Ops. (no q -> -q+G )


     G cutoff =  194.4630  (    685 G-vectors)     FFT grid: ( 20, 20, 20)
     number of k points=   288

     PseudoPot. # 1 for Si read from file:
     /home/max/quantum_espresso/qe-6.1/pseudo/si_pbe_v1.uspp.F.UPF.txt
     MD5 check sum: a056efeee980c13900f22a371efd63c1
     Pseudo is Ultrasoft + core correction, Zval =  4.0
     Generated by new atomic code, or converted to UPF format
     Using radial grid of  899 points,  6 beta functions with: 
                l(1) =   0
                l(2) =   0
                l(3) =   1
                l(4) =   1
                l(5) =   2
                l(6) =   2
     Q(r) pseudized with  8 coefficients,  rinner =    0.900   0.900   0.900
                                                       0.900   0.900

     Mode symmetry, C_s (m)     point group:


     Atomic displacements:
     There are   6 irreducible representations

     Representation     1      1 modes -A'  To be done

     Representation     2      1 modes -A'  To be done

     Representation     3      1 modes -A'  To be done

     Representation     4      1 modes -A'  To be done

     Representation     5      1 modes -A''  To be done

     Representation     6      1 modes -A''  To be done



     Alpha used in Ewald sum =   0.7000
     PHONON       :    32.82s CPU        36.64s WALL



     Representation #  1 mode #   1

     Self-consistent Calculation

      iter #   1 total cpu time :    37.2 secs   av.it.:   5.3
      thresh= 1.000E-02 alpha_mix =  0.700 |ddv_scf|^2 =  6.129E-05

      iter #   2 total cpu time :    38.0 secs   av.it.:   8.9
      thresh= 7.829E-04 alpha_mix =  0.700 |ddv_scf|^2 =  1.602E-04

      iter #   3 total cpu time :    38.8 secs   av.it.:   7.6
      thresh= 1.266E-03 alpha_mix =  0.700 |ddv_scf|^2 =  1.140E-06

      iter #   4 total cpu time :    39.5 secs   av.it.:   8.4
      thresh= 1.068E-04 alpha_mix =  0.700 |ddv_scf|^2 =  5.605E-08

      iter #   5 total cpu time :    40.5 secs   av.it.:   8.3
      thresh= 2.368E-05 alpha_mix =  0.700 |ddv_scf|^2 =  7.243E-09

      iter #   6 total cpu time :    41.2 secs   av.it.:   8.5
      thresh= 8.511E-06 alpha_mix =  0.700 |ddv_scf|^2 =  7.861E-11

      iter #   7 total cpu time :    42.0 secs   av.it.:   8.8
      thresh= 8.866E-07 alpha_mix =  0.700 |ddv_scf|^2 =  2.856E-12

      iter #   8 total cpu time :    42.9 secs   av.it.:   8.6
      thresh= 1.690E-07 alpha_mix =  0.700 |ddv_scf|^2 =  1.956E-13

     End of self-consistent calculation

     Convergence has been achieved 


     Representation #  2 mode #   2

     Self-consistent Calculation

      iter #   1 total cpu time :    43.6 secs   av.it.:   5.4
      thresh= 1.000E-02 alpha_mix =  0.700 |ddv_scf|^2 =  1.092E-04

      iter #   2 total cpu time :    44.5 secs   av.it.:   8.7
      thresh= 1.045E-03 alpha_mix =  0.700 |ddv_scf|^2 =  3.109E-04

      iter #   3 total cpu time :    45.1 secs   av.it.:   7.4
      thresh= 1.763E-03 alpha_mix =  0.700 |ddv_scf|^2 =  7.805E-07

      iter #   4 total cpu time :    45.9 secs   av.it.:   8.5
      thresh= 8.834E-05 alpha_mix =  0.700 |ddv_scf|^2 =  5.561E-08

      iter #   5 total cpu time :    46.8 secs   av.it.:   8.2
      thresh= 2.358E-05 alpha_mix =  0.700 |ddv_scf|^2 =  1.018E-08

      iter #   6 total cpu time :    47.6 secs   av.it.:   8.5
      thresh= 1.009E-05 alpha_mix =  0.700 |ddv_scf|^2 =  7.836E-11

      iter #   7 total cpu time :    48.5 secs   av.it.:   8.8
      thresh= 8.852E-07 alpha_mix =  0.700 |ddv_scf|^2 =  2.390E-12

      iter #   8 total cpu time :    49.2 secs   av.it.:   8.6
      thresh= 1.546E-07 alpha_mix =  0.700 |ddv_scf|^2 =  4.158E-13

     End of self-consistent calculation

     Convergence has been achieved 


     Representation #  3 mode #   3

     Self-consistent Calculation

      iter #   1 total cpu time :    49.9 secs   av.it.:   5.3
      thresh= 1.000E-02 alpha_mix =  0.700 |ddv_scf|^2 =  8.559E-05

      iter #   2 total cpu time :    50.8 secs   av.it.:   8.8
      thresh= 9.251E-04 alpha_mix =  0.700 |ddv_scf|^2 =  2.282E-04

      iter #   3 total cpu time :    51.5 secs   av.it.:   7.4
      thresh= 1.511E-03 alpha_mix =  0.700 |ddv_scf|^2 =  1.334E-06

      iter #   4 total cpu time :    52.2 secs   av.it.:   8.2
      thresh= 1.155E-04 alpha_mix =  0.700 |ddv_scf|^2 =  5.670E-08

      iter #   5 total cpu time :    53.1 secs   av.it.:   8.4
      thresh= 2.381E-05 alpha_mix =  0.700 |ddv_scf|^2 =  1.043E-08

      iter #   6 total cpu time :    53.9 secs   av.it.:   8.4
      thresh= 1.021E-05 alpha_mix =  0.700 |ddv_scf|^2 =  4.609E-11

      iter #   7 total cpu time :    54.8 secs   av.it.:   8.7
      thresh= 6.789E-07 alpha_mix =  0.700 |ddv_scf|^2 =  1.573E-12

      iter #   8 total cpu time :    55.6 secs   av.it.:   8.8
      thresh= 1.254E-07 alpha_mix =  0.700 |ddv_scf|^2 =  2.270E-13

     End of self-consistent calculation

     Convergence has been achieved 


     Representation #  4 mode #   4

     Self-consistent Calculation

      iter #   1 total cpu time :    56.2 secs   av.it.:   5.2
      thresh= 1.000E-02 alpha_mix =  0.700 |ddv_scf|^2 =  3.776E-05

      iter #   2 total cpu time :    57.1 secs   av.it.:   8.9
[...]
        k(   59) = (  -0.8750000   0.1250000  -0.1250000), wk =   0.0625000
        k(   60) = (  -1.3750000  -0.8750000  -0.1250000), wk =   0.0000000
        k(   61) = (  -1.1250000   0.3750000  -0.3750000), wk =   0.0625000
        k(   62) = (  -1.6250000  -0.6250000  -0.3750000), wk =   0.0000000
        k(   63) = (  -0.3750000   0.3750000   1.1250000), wk =   0.0625000
        k(   64) = (  -0.8750000  -0.6250000   1.1250000), wk =   0.0000000

     Dense  grid:     2741 G-vectors     FFT dimensions: (  20,  20,  20)

     Estimated max dynamical RAM per process >       0.33MB

     Estimated total allocated dynamical RAM >       1.30MB

     Check: negative/imaginary core charge=   -0.000005    0.000000

     The potential is recalculated from file :
     ./_ph0/silicon.10.326.save/charge-density.dat

     Starting wfc are    8 atomic wfcs

     Band Structure Calculation
     Davidson diagonalization with overlap

     ethr =  1.25E-10,  avg # of iterations = 11.6

     total cpu time spent up to now is        7.1 secs

     End of band structure calculation

          k =-0.1250 0.1250 0.1250 (   338 PWs)   bands (ev):

    -5.6226   4.4132   5.7219   5.7219

          k =-0.6250-0.8750 0.1250 (   359 PWs)   bands (ev):

    -2.4249  -0.8830   2.0372   3.1109

          k =-0.3750 0.3750-0.1250 (   352 PWs)   bands (ev):

    -4.5967   1.4173   3.7373   5.2395

          k =-0.8750-0.6250-0.1250 (   359 PWs)   bands (ev):

    -2.4249  -0.8830   2.0372   3.1109

          k = 0.3750-0.3750 0.6250 (   359 PWs)   bands (ev):

    -3.4584  -0.6599   3.7567   4.4678

          k =-0.1250-1.3750 0.6250 (   361 PWs)   bands (ev):

    -2.9625  -0.5780   2.0949   4.1513

          k = 0.1250-0.1250 0.3750 (   349 PWs)   bands (ev):

    -5.0953   2.7941   4.7128   4.7780

          k =-0.3750-1.1250 0.3750 (   361 PWs)   bands (ev):

    -2.9625  -0.5780   2.0949   4.1513

          k =-0.1250 0.6250 0.1250 (   349 PWs)   bands (ev):

    -4.0639   1.0811   3.3887   3.8380

          k =-0.6250-0.3750 0.1250 (   357 PWs)   bands (ev):

    -3.6491   0.2086   2.7481   4.1140

          k = 0.6250-0.1250 0.8750 (   359 PWs)   bands (ev):

    -2.4249  -0.8830   2.0372   3.1109

          k = 0.1250-1.1250 0.8750 (   358 PWs)   bands (ev):

    -2.5922  -0.7857   2.6446   3.3707

          k = 0.3750 0.1250 0.6250 (   357 PWs)   bands (ev):

    -3.6491   0.2086   2.7481   4.1140

          k =-0.1250-0.8750 0.6250 (   359 PWs)   bands (ev):

    -2.4249  -0.8830   2.0372   3.1109

          k =-0.1250-0.8750 0.1250 (   358 PWs)   bands (ev):

    -2.5922  -0.7857   2.6446   3.3707

          k =-0.6250-1.8750 0.1250 (   349 PWs)   bands (ev):

    -4.0639   1.0811   3.3887   3.8380

          k =-0.3750 0.3750 0.3750 (   353 PWs)   bands (ev):

    -4.1646   0.1285   4.9326   4.9326

          k =-0.8750-0.6250 0.3750 (   357 PWs)   bands (ev):

    -3.6491   0.2086   2.7481   4.1140

          k = 0.3750-0.3750 1.1250 (   361 PWs)   bands (ev):

    -2.9625  -0.5780   2.0949   4.1513

          k =-0.1250-1.3750 1.1250 (   359 PWs)   bands (ev):

    -2.4249  -0.8830   2.0372   3.1109

          k = 0.1250-0.3750 0.3750 (   352 PWs)   bands (ev):

    -4.5967   1.4173   3.7373   5.2395

          k =-0.3750-1.3750 0.3750 (   359 PWs)   bands (ev):

    -3.4584  -0.6599   3.7567   4.4678

          k = 0.3750-0.3750-0.1250 (   352 PWs)   bands (ev):

    -4.5967   1.4173   3.7373   5.2395

          k =-0.1250-1.3750-0.1250 (   349 PWs)   bands (ev):

    -4.0639   1.0811   3.3887   3.8380

          k =-0.6250 0.3750-0.3750 (   359 PWs)   bands (ev):

    -3.4584  -0.6599   3.7567   4.4678

          k =-1.1250-0.6250-0.3750 (   357 PWs)   bands (ev):

    -3.6491   0.2086   2.7481   4.1140

          k =-0.3750 0.3750 0.6250 (   359 PWs)   bands (ev):

    -3.4584  -0.6599   3.7567   4.4678

          k =-0.8750-0.6250 0.6250 (   352 PWs)   bands (ev):

    -4.5967   1.4173   3.7373   5.2395

          k =-0.3750 0.1250-0.1250 (   349 PWs)   bands (ev):

    -5.0953   2.7941   4.7128   4.7780

          k =-0.8750-0.8750-0.1250 (   358 PWs)   bands (ev):

    -2.5922  -0.7857   2.6446   3.3707

          k =-0.1250 0.1250 0.3750 (   349 PWs)   bands (ev):

    -5.0953   2.7941   4.7128   4.7780

          k =-0.6250-0.8750 0.3750 (   357 PWs)   bands (ev):

    -3.6491   0.2086   2.7481   4.1140

          k = 0.1250 0.6250-0.1250 (   349 PWs)   bands (ev):

    -4.0639   1.0811   3.3887   3.8380

          k =-0.3750-0.3750-0.1250 (   352 PWs)   bands (ev):

    -4.5967   1.4173   3.7373   5.2395

          k = 0.6250 0.1250-0.1250 (   349 PWs)   bands (ev):

    -4.0639   1.0811   3.3887   3.8380

          k = 0.1250-0.8750-0.1250 (   358 PWs)   bands (ev):

    -2.5922  -0.7857   2.6446   3.3707

          k =-0.8750 0.1250-0.6250 (   359 PWs)   bands (ev):

    -2.4249  -0.8830   2.0372   3.1109

          k =-1.3750-0.8750-0.6250 (   352 PWs)   bands (ev):

    -4.5967   1.4173   3.7373   5.2395

          k = 0.8750-0.1250 0.6250 (   359 PWs)   bands (ev):

    -2.4249  -0.8830   2.0372   3.1109

          k = 0.3750-1.1250 0.6250 (   357 PWs)   bands (ev):

    -3.6491   0.2086   2.7481   4.1140

          k =-0.6250 0.1250 0.8750 (   359 PWs)   bands (ev):

    -2.4249  -0.8830   2.0372   3.1109

          k =-1.1250-0.8750 0.8750 (   338 PWs)   bands (ev):

    -5.6226   4.4132   5.7219   5.7219

          k =-0.1250 0.8750 0.6250 (   359 PWs)   bands (ev):

    -2.4249  -0.8830   2.0372   3.1109

          k =-0.6250-0.1250 0.6250 (   361 PWs)   bands (ev):

    -2.9625  -0.5780   2.0949   4.1513

          k = 0.1250 0.8750-0.6250 (   359 PWs)   bands (ev):

    -2.4249  -0.8830   2.0372   3.1109

          k =-0.3750-0.1250-0.6250 (   357 PWs)   bands (ev):

    -3.6491   0.2086   2.7481   4.1140

          k =-0.6250-0.1250-0.3750 (   357 PWs)   bands (ev):

    -3.6491   0.2086   2.7481   4.1140

          k =-1.1250-1.1250-0.3750 (   349 PWs)   bands (ev):

    -4.0639   1.0811   3.3887   3.8380

          k = 0.6250 0.1250 0.3750 (   357 PWs)   bands (ev):

    -3.6491   0.2086   2.7481   4.1140

          k = 0.1250-0.8750 0.3750 (   359 PWs)   bands (ev):

    -2.4249  -0.8830   2.0372   3.1109

          k =-0.3750-0.1250 0.6250 (   357 PWs)   bands (ev):

    -3.6491   0.2086   2.7481   4.1140

          k =-0.8750-1.1250 0.6250 (   349 PWs)   bands (ev):

    -5.0953   2.7941   4.7128   4.7780

          k = 0.1250 0.6250 0.3750 (   357 PWs)   bands (ev):

    -3.6491   0.2086   2.7481   4.1140

          k =-0.3750-0.3750 0.3750 (   353 PWs)   bands (ev):

    -4.1646   0.1285   4.9326   4.9326

          k =-0.1250 0.6250-0.3750 (   357 PWs)   bands (ev):

    -3.6491   0.2086   2.7481   4.1140

          k =-0.6250-0.3750-0.3750 (   359 PWs)   bands (ev):

    -3.4584  -0.6599   3.7567   4.4678

          k = 0.1250-0.8750-0.1250 (   358 PWs)   bands (ev):

    -2.5922  -0.7857   2.6446   3.3707

          k =-0.3750-1.8750-0.1250 (   349 PWs)   bands (ev):

    -5.0953   2.7941   4.7128   4.7780

          k =-0.8750 0.1250-0.1250 (   358 PWs)   bands (ev):

    -2.5922  -0.7857   2.6446   3.3707

          k =-1.3750-0.8750-0.1250 (   359 PWs)   bands (ev):

    -2.4249  -0.8830   2.0372   3.1109

          k =-1.1250 0.3750-0.3750 (   361 PWs)   bands (ev):

    -2.9625  -0.5780   2.0949   4.1513

          k =-1.6250-0.6250-0.3750 (   359 PWs)   bands (ev):

    -3.4584  -0.6599   3.7567   4.4678

          k =-0.3750 0.3750 1.1250 (   361 PWs)   bands (ev):

    -2.9625  -0.5780   2.0949   4.1513

          k =-0.8750-0.6250 1.1250 (   349 PWs)   bands (ev):

    -5.0953   2.7941   4.7128   4.7780

     highest occupied level (ev):     5.7219

     Writing output data file silicon.10.326.save

                                                                                

     bravais-lattice index     =            2
     lattice parameter (alat)  =      10.3260  a.u.
     unit-cell volume          =     275.2557 (a.u.)^3
     number of atoms/cell      =            2
     number of atomic types    =            1
     kinetic-energy cut-off    =      18.0000  Ry
     charge density cut-off    =      72.0000  Ry
     convergence threshold     =      1.0E-12
     beta                      =       0.7000
     number of iterations used =            4
     Exchange-correlation      = SLA  PW   PBE  PBE ( 1  4  3  4 0 0)


     celldm(1)=   10.32600  celldm(2)=    0.00000  celldm(3)=    0.00000
     celldm(4)=    0.00000  celldm(5)=    0.00000  celldm(6)=    0.00000

     crystal axes: (cart. coord. in units of alat)
               a(1) = ( -0.5000  0.0000  0.5000 )  
               a(2) = (  0.0000  0.5000  0.5000 )  
               a(3) = ( -0.5000  0.5000  0.0000 )  

     reciprocal axes: (cart. coord. in units 2 pi/alat)
               b(1) = ( -1.0000 -1.0000  1.0000 )  
               b(2) = (  1.0000  1.0000  1.0000 )  
               b(3) = ( -1.0000  1.0000 -1.0000 )  


     Atoms inside the unit cell: 

     Cartesian axes

     site n.  atom      mass           positions (alat units)
        1     Si  28.0860   tau(    1) = (    0.00000    0.00000    0.00000  )
        2     Si  28.0860   tau(    2) = (    0.25000    0.25000    0.25000  )

     Computing dynamical matrix for 
                    q = (  -0.5000000  -1.0000000   0.0000000 )

      8 Sym.Ops. (no q -> -q+G )


     G cutoff =  194.4630  (    685 G-vectors)     FFT grid: ( 20, 20, 20)
     number of k points=    64

     PseudoPot. # 1 for Si read from file:
     /home/max/quantum_espresso/qe-6.1/pseudo/si_pbe_v1.uspp.F.UPF.txt
     MD5 check sum: a056efeee980c13900f22a371efd63c1
     Pseudo is Ultrasoft + core correction, Zval =  4.0
     Generated by new atomic code, or converted to UPF format
     Using radial grid of  899 points,  6 beta functions with: 
                l(1) =   0
                l(2) =   0
                l(3) =   1
                l(4) =   1
                l(5) =   2
                l(6) =   2
     Q(r) pseudized with  8 coefficients,  rinner =    0.900   0.900   0.900
                                                       0.900   0.900


     Atomic displacements:
     There are   3 irreducible representations

     Representation     1      2 modes -  To be done

     Representation     2      2 modes -  To be done

     Representation     3      2 modes -  To be done



     Alpha used in Ewald sum =   0.7000
     PHONON       :  1m24.20s CPU     1m31.60s WALL



     Representation #  1 modes #   1  2

     Self-consistent Calculation

      iter #   1 total cpu time :    91.9 secs   av.it.:   5.3
      thresh= 1.000E-02 alpha_mix =  0.700 |ddv_scf|^2 =  6.346E-06

      iter #   2 total cpu time :    92.2 secs   av.it.:   9.9
      thresh= 2.519E-04 alpha_mix =  0.700 |ddv_scf|^2 =  3.439E-06

      iter #   3 total cpu time :    92.8 secs   av.it.:   9.2
      thresh= 1.854E-04 alpha_mix =  0.700 |ddv_scf|^2 =  8.409E-09

      iter #   4 total cpu time :    93.1 secs   av.it.:   9.1
      thresh= 9.170E-06 alpha_mix =  0.700 |ddv_scf|^2 =  1.911E-11

      iter #   5 total cpu time :    93.5 secs   av.it.:   9.2
      thresh= 4.372E-07 alpha_mix =  0.700 |ddv_scf|^2 =  5.276E-13

     End of self-consistent calculation

     Convergence has been achieved 


     Representation #  2 modes #   3  4

     Self-consistent Calculation

      iter #   1 total cpu time :    93.7 secs   av.it.:   5.2
      thresh= 1.000E-02 alpha_mix =  0.700 |ddv_scf|^2 =  9.827E-06

      iter #   2 total cpu time :    94.1 secs   av.it.:   9.9
      thresh= 3.135E-04 alpha_mix =  0.700 |ddv_scf|^2 =  1.305E-05

      iter #   3 total cpu time :    94.6 secs   av.it.:   9.1
      thresh= 3.612E-04 alpha_mix =  0.700 |ddv_scf|^2 =  9.879E-09

      iter #   4 total cpu time :    95.0 secs   av.it.:   8.9
      thresh= 9.939E-06 alpha_mix =  0.700 |ddv_scf|^2 =  7.996E-11

      iter #   5 total cpu time :    95.3 secs   av.it.:   9.4
      thresh= 8.942E-07 alpha_mix =  0.700 |ddv_scf|^2 =  1.724E-12

      iter #   6 total cpu time :    95.7 secs   av.it.:   9.1
      thresh= 1.313E-07 alpha_mix =  0.700 |ddv_scf|^2 =  1.441E-14

     End of self-consistent calculation

     Convergence has been achieved 


     Representation #  3 modes #   5  6

     Self-consistent Calculation

      iter #   1 total cpu time :    95.9 secs   av.it.:   5.1
      thresh= 1.000E-02 alpha_mix =  0.700 |ddv_scf|^2 =  2.655E-06

      iter #   2 total cpu time :    96.4 secs   av.it.:   9.7
      thresh= 1.630E-04 alpha_mix =  0.700 |ddv_scf|^2 =  1.451E-06

      iter #   3 total cpu time :    96.9 secs   av.it.:   9.1
      thresh= 1.204E-04 alpha_mix =  0.700 |ddv_scf|^2 =  8.284E-09

      iter #   4 total cpu time :    97.3 secs   av.it.:   8.8
      thresh= 9.102E-06 alpha_mix =  0.700 |ddv_scf|^2 =  4.267E-11

      iter #   5 total cpu time :    97.6 secs   av.it.:   9.1
      thresh= 6.532E-07 alpha_mix =  0.700 |ddv_scf|^2 =  6.991E-13

     End of self-consistent calculation

     Convergence has been achieved 

     Number of q in the star =    6
     List of q in the star:
          1  -0.500000000  -1.000000000   0.000000000
          2   0.000000000   1.000000000   0.500000000
          3   0.000000000  -1.000000000  -0.500000000
          4   0.500000000   1.000000000   0.000000000
          5  -1.000000000  -0.500000000   0.000000000
          6   0.000000000  -0.500000000  -1.000000000

     Diagonalizing the dynamical matrix

     q = (   -0.500000000  -1.000000000   0.000000000 ) 

 **************************************************************************
     freq (    1) =       6.985118 [THz] =     232.998469 [cm-1]
     freq (    2) =       6.985118 [THz] =     232.998469 [cm-1]
     freq (    3) =      10.801927 [THz] =     360.313515 [cm-1]
     freq (    4) =      10.801927 [THz] =     360.313515 [cm-1]
     freq (    5) =      13.822304 [THz] =     461.062428 [cm-1]
     freq (    6) =      13.822304 [THz] =     461.062428 [cm-1]
 **************************************************************************

     init_run     :      0.54s CPU      0.64s WALL (       7 calls)
     electrons    :      5.11s CPU      5.66s WALL (       7 calls)

     Called by init_run:
     wfcinit      :      0.00s CPU      0.00s WALL (       7 calls)
     potinit      :      0.02s CPU      0.02s WALL (       7 calls)

     Called by electrons:
     c_bands      :      5.10s CPU      5.65s WALL (       7 calls)
     v_of_rho     :      0.02s CPU      0.02s WALL (       8 calls)
     newd         :      0.03s CPU      0.03s WALL (       8 calls)

     Called by c_bands:
     init_us_2    :      0.68s CPU      0.73s WALL (   17588 calls)
     cegterg      :      4.31s CPU      4.76s WALL (     796 calls)

     Called by sum_band:

     Called by *egterg:
     h_psi        :     49.46s CPU     53.57s WALL (  152224 calls)
     s_psi        :      5.81s CPU      6.26s WALL (  309168 calls)
     g_psi        :      0.03s CPU      0.03s WALL (    9268 calls)
     cdiaghg      :      0.48s CPU      0.52s WALL (   10064 calls)

     Called by h_psi:
     h_psi:pot    :     49.27s CPU     53.36s WALL (  152224 calls)
     h_psi:calbec :      5.47s CPU      5.98s WALL (  152224 calls)
     vloc_psi     :     40.67s CPU     43.99s WALL (  152224 calls)
     add_vuspsi   :      2.91s CPU      3.16s WALL (  152224 calls)

     General routines
     calbec       :     11.57s CPU     12.67s WALL (  345540 calls)
     fft          :      0.60s CPU      0.64s WALL (    5239 calls)
     ffts         :      0.15s CPU      0.18s WALL (    2748 calls)
     fftw         :     47.71s CPU     51.65s WALL ( 1378370 calls)
     davcio       :      0.29s CPU      0.32s WALL (   79045 calls)

     Parallel routines
     fft_scatter  :     15.42s CPU     16.91s WALL ( 1386357 calls)

     PHONON       :  1m29.79s CPU     1m37.63s WALL

     INITIALIZATION: 
     phq_setup    :      0.06s CPU      0.06s WALL (       8 calls)
     phq_init     :      2.13s CPU      2.30s WALL (       8 calls)

     phq_init     :      2.13s CPU      2.30s WALL (       8 calls)
     set_drhoc    :      0.28s CPU      0.29s WALL (      24 calls)
     init_vloc    :      0.01s CPU      0.01s WALL (       8 calls)
     init_us_1    :      0.50s CPU      0.64s WALL (       8 calls)
     newd         :      0.03s CPU      0.03s WALL (       8 calls)
     dvanqq       :      0.24s CPU      0.25s WALL (       8 calls)
     drho         :      1.15s CPU      1.27s WALL (       8 calls)

     DYNAMICAL MATRIX:
     dynmat0      :      0.51s CPU      0.53s WALL (       8 calls)
     phqscf       :     79.41s CPU     86.08s WALL (       8 calls)
     dynmatrix    :      0.01s CPU      0.02s WALL (       8 calls)

     phqscf       :     79.41s CPU     86.08s WALL (       8 calls)
     solve_linter :     78.60s CPU     85.15s WALL (      32 calls)
     drhodv       :      0.60s CPU      0.69s WALL (      32 calls)

     dynmat0      :      0.51s CPU      0.53s WALL (       8 calls)
     dynmat_us    :      0.29s CPU      0.29s WALL (       8 calls)
     d2ionq       :      0.00s CPU      0.01s WALL (       8 calls)
     dynmatcc     :      0.20s CPU      0.21s WALL (       8 calls)

     dynmat_us    :      0.29s CPU      0.29s WALL (       8 calls)
     addusdynmat  :      0.00s CPU      0.00s WALL (       8 calls)

     phqscf       :     79.41s CPU     86.08s WALL (       8 calls)
     solve_linter :     78.60s CPU     85.15s WALL (      32 calls)

     solve_linter :     78.60s CPU     85.15s WALL (      32 calls)
     dvqpsi_us    :      1.76s CPU      1.88s WALL (    2508 calls)
     ortho        :      1.27s CPU      1.39s WALL (   15550 calls)
     cgsolve      :     61.67s CPU     66.88s WALL (   15550 calls)
     incdrhoscf   :      5.49s CPU      5.93s WALL (   15550 calls)
     addusddens   :      1.19s CPU      1.24s WALL (     228 calls)
     vpsifft      :      3.93s CPU      4.28s WALL (   12922 calls)
     dv_of_drho   :      0.25s CPU      0.26s WALL (     295 calls)
     mix_pot      :      0.06s CPU      0.07s WALL (     201 calls)
     psymdvscf    :      0.80s CPU      0.89s WALL (     196 calls)
     newdq        :      1.34s CPU      1.41s WALL (     201 calls)
     adddvscf     :      0.46s CPU      0.49s WALL (   13042 calls)
     drhodvus     :      0.00s CPU      0.00s WALL (      32 calls)

     dvqpsi_us    :      1.76s CPU      1.88s WALL (    2508 calls)
     dvqpsi_us_on :      0.83s CPU      0.87s WALL (    2508 calls)

     cgsolve      :     61.67s CPU     66.88s WALL (   15550 calls)
     ch_psi       :     59.03s CPU     63.88s WALL (  141364 calls)

     ch_psi       :     59.03s CPU     63.88s WALL (  141364 calls)
     h_psi        :     49.46s CPU     53.57s WALL (  152224 calls)
     last         :     10.09s CPU     11.00s WALL (  141364 calls)

     h_psi        :     49.46s CPU     53.57s WALL (  152224 calls)
     add_vuspsi   :      2.91s CPU      3.16s WALL (  152224 calls)

     incdrhoscf   :      5.49s CPU      5.93s WALL (   15550 calls)
     addusdbec    :      0.78s CPU      0.87s WALL (   17998 calls)

     drhodvus     :      0.00s CPU      0.00s WALL (      32 calls)

      General routines
     calbec       :     11.57s CPU     12.67s WALL (  345540 calls)
     fft          :      0.60s CPU      0.64s WALL (    5239 calls)
     ffts         :      0.15s CPU      0.18s WALL (    2748 calls)
     fftw         :     47.71s CPU     51.65s WALL ( 1378370 calls)
     davcio       :      0.29s CPU      0.32s WALL (   79045 calls)
     write_rec    :      0.23s CPU      0.28s WALL (     233 calls)


     PHONON       :  1m29.79s CPU     1m37.63s WALL


   This run was terminated on:  12:12:12   9Nov2017            

=------------------------------------------------------------------------------=
   JOB DONE.
=------------------------------------------------------------------------------=
