
     Program PWSCF v.6.1 (svn rev. 13369) starts on 10Nov2017 at 10: 3:58 

     This program is part of the open-source Quantum ESPRESSO suite
     for quantum simulation of materials; please cite
         "P. Giannozzi et al., J. Phys.:Condens. Matter 21 395502 (2009);
          URL http://www.quantum-espresso.org", 
     in publications or presentations arising from this work. More details at
     http://www.quantum-espresso.org/quote

     Parallel version (MPI), running on     4 processors
     R & G space division:  proc/nbgrp/npool/nimage =       4
     Waiting for input...
     Reading input from standard input
     Message from routine read_cards :
     DEPRECATED: no units specified in ATOMIC_POSITIONS card
     Message from routine read_cards :
     ATOMIC_POSITIONS: units set to alat

     Current dimensions of program PWSCF are:
     Max number of different atomic species (ntypx) = 10
     Max number of k-points (npk) =  40000
     Max angular momentum in pseudopotentials (lmaxx) =  3

     Subspace diagonalization in iterative solution of the eigenvalue problem:
     a serial algorithm will be used


     Parallelization info
     --------------------
     sticks:   dense  smooth     PW     G-vecs:    dense   smooth      PW
     Min         136      66     22                 2072      722     152
     Max         137      67     23                 2073      724     153
     Sum         547     265     91                 8291     2891     609



     bravais-lattice index     =            2
     lattice parameter (alat)  =      10.4100  a.u.
     unit-cell volume          =     282.0280 (a.u.)^3
     number of atoms/cell      =            2
     number of atomic types    =            1
     number of electrons       =         8.00
     number of Kohn-Sham states=            4
     kinetic-energy cutoff     =      18.0000  Ry
     charge density cutoff     =     144.0000  Ry
     convergence threshold     =      1.0E-08
     mixing beta               =       0.7000
     number of iterations used =            8  plain     mixing
     Exchange-correlation      = SLA  PW   PBE  PBE ( 1  4  3  4 0 0)

     celldm(1)=  10.410000  celldm(2)=   0.000000  celldm(3)=   0.000000
     celldm(4)=   0.000000  celldm(5)=   0.000000  celldm(6)=   0.000000

     crystal axes: (cart. coord. in units of alat)
               a(1) = (  -0.500000   0.000000   0.500000 )  
               a(2) = (   0.000000   0.500000   0.500000 )  
               a(3) = (  -0.500000   0.500000   0.000000 )  

     reciprocal axes: (cart. coord. in units 2 pi/alat)
               b(1) = ( -1.000000 -1.000000  1.000000 )  
               b(2) = (  1.000000  1.000000  1.000000 )  
               b(3) = ( -1.000000  1.000000 -1.000000 )  


     PseudoPot. # 1 for Si read from file:
     /home/max/quantum_espresso/qe-6.1/pseudo/si_pbe_v1.uspp.F.UPF.txt
     MD5 check sum: a056efeee980c13900f22a371efd63c1
     Pseudo is Ultrasoft + core correction, Zval =  4.0
     Generated by new atomic code, or converted to UPF format
     Using radial grid of  899 points,  6 beta functions with: 
                l(1) =   0
                l(2) =   0
                l(3) =   1
                l(4) =   1
                l(5) =   2
                l(6) =   2
     Q(r) pseudized with  8 coefficients,  rinner =    0.900   0.900   0.900
                                                       0.900   0.900

     atomic species   valence    mass     pseudopotential
        Si             4.00    28.08600     Si( 1.00)

     24 Sym. Ops. (no inversion) found
          (note: 24 additional sym.ops. were found but ignored
           their fractional translations are incommensurate with FFT grid)


   Cartesian axes

     site n.     atom                  positions (alat units)
         1           Si  tau(   1) = (   0.0000000   0.0000000   0.0000000  )
         2           Si  tau(   2) = (   0.2500000   0.2500000   0.2500000  )

     number of k points=    60
                       cart. coord. in units 2pi/alat
        k(    1) = (  -0.0625000   0.0625000   0.0625000), wk =   0.0078125
        k(    2) = (  -0.1875000   0.1875000  -0.0625000), wk =   0.0234375
        k(    3) = (  -0.3125000   0.3125000  -0.1875000), wk =   0.0234375
        k(    4) = (  -0.4375000   0.4375000  -0.3125000), wk =   0.0234375
        k(    5) = (   0.4375000  -0.4375000   0.5625000), wk =   0.0234375
        k(    6) = (   0.3125000  -0.3125000   0.4375000), wk =   0.0234375
        k(    7) = (   0.1875000  -0.1875000   0.3125000), wk =   0.0234375
        k(    8) = (   0.0625000  -0.0625000   0.1875000), wk =   0.0234375
        k(    9) = (  -0.0625000   0.3125000   0.0625000), wk =   0.0234375
        k(   10) = (  -0.1875000   0.4375000  -0.0625000), wk =   0.0468750
        k(   11) = (  -0.3125000   0.5625000  -0.1875000), wk =   0.0468750
        k(   12) = (   0.5625000  -0.3125000   0.6875000), wk =   0.0468750
        k(   13) = (   0.4375000  -0.1875000   0.5625000), wk =   0.0468750
        k(   14) = (   0.3125000  -0.0625000   0.4375000), wk =   0.0468750
        k(   15) = (   0.1875000   0.0625000   0.3125000), wk =   0.0468750
        k(   16) = (  -0.0625000   0.5625000   0.0625000), wk =   0.0234375
        k(   17) = (  -0.1875000   0.6875000  -0.0625000), wk =   0.0468750
        k(   18) = (   0.6875000  -0.1875000   0.8125000), wk =   0.0468750
        k(   19) = (   0.5625000  -0.0625000   0.6875000), wk =   0.0468750
        k(   20) = (   0.4375000   0.0625000   0.5625000), wk =   0.0468750
        k(   21) = (   0.3125000   0.1875000   0.4375000), wk =   0.0468750
        k(   22) = (  -0.0625000   0.8125000   0.0625000), wk =   0.0234375
        k(   23) = (   0.8125000  -0.0625000   0.9375000), wk =   0.0468750
        k(   24) = (   0.6875000   0.0625000   0.8125000), wk =   0.0468750
        k(   25) = (   0.5625000   0.1875000   0.6875000), wk =   0.0468750
        k(   26) = (   0.4375000   0.3125000   0.5625000), wk =   0.0468750
        k(   27) = (  -0.0625000  -0.9375000   0.0625000), wk =   0.0234375
        k(   28) = (  -0.1875000  -0.8125000  -0.0625000), wk =   0.0468750
        k(   29) = (  -0.3125000  -0.6875000  -0.1875000), wk =   0.0468750
        k(   30) = (  -0.0625000  -0.6875000   0.0625000), wk =   0.0234375
        k(   31) = (  -0.1875000  -0.5625000  -0.0625000), wk =   0.0468750
        k(   32) = (  -0.0625000  -0.4375000   0.0625000), wk =   0.0234375
        k(   33) = (  -0.1875000   0.1875000   0.1875000), wk =   0.0078125
        k(   34) = (  -0.3125000   0.3125000   0.0625000), wk =   0.0234375
        k(   35) = (  -0.4375000   0.4375000  -0.0625000), wk =   0.0234375
        k(   36) = (   0.4375000  -0.4375000   0.8125000), wk =   0.0234375
        k(   37) = (   0.3125000  -0.3125000   0.6875000), wk =   0.0234375
        k(   38) = (   0.1875000  -0.1875000   0.5625000), wk =   0.0234375
        k(   39) = (  -0.1875000   0.4375000   0.1875000), wk =   0.0234375
        k(   40) = (  -0.3125000   0.5625000   0.0625000), wk =   0.0468750
        k(   41) = (   0.5625000  -0.3125000   0.9375000), wk =   0.0468750
        k(   42) = (   0.4375000  -0.1875000   0.8125000), wk =   0.0468750
        k(   43) = (   0.3125000  -0.0625000   0.6875000), wk =   0.0468750
        k(   44) = (  -0.1875000   0.6875000   0.1875000), wk =   0.0234375
        k(   45) = (   0.6875000  -0.1875000   1.0625000), wk =   0.0468750
        k(   46) = (   0.5625000  -0.0625000   0.9375000), wk =   0.0468750
        k(   47) = (   0.4375000   0.0625000   0.8125000), wk =   0.0468750
        k(   48) = (  -0.1875000  -1.0625000   0.1875000), wk =   0.0234375
        k(   49) = (  -0.3125000  -0.9375000   0.0625000), wk =   0.0468750
        k(   50) = (  -0.1875000  -0.8125000   0.1875000), wk =   0.0234375
        k(   51) = (  -0.3125000   0.3125000   0.3125000), wk =   0.0078125
        k(   52) = (  -0.4375000   0.4375000   0.1875000), wk =   0.0234375
        k(   53) = (   0.4375000  -0.4375000   1.0625000), wk =   0.0234375
        k(   54) = (   0.3125000  -0.3125000   0.9375000), wk =   0.0234375
        k(   55) = (  -0.3125000   0.5625000   0.3125000), wk =   0.0234375
        k(   56) = (   0.5625000  -0.3125000   1.1875000), wk =   0.0468750
        k(   57) = (   0.4375000  -0.1875000   1.0625000), wk =   0.0468750
        k(   58) = (  -0.3125000  -1.1875000   0.3125000), wk =   0.0234375
        k(   59) = (  -0.4375000   0.4375000   0.4375000), wk =   0.0078125
        k(   60) = (   0.4375000  -0.4375000   1.3125000), wk =   0.0234375

     Dense  grid:     8291 G-vectors     FFT dimensions: (  30,  30,  30)

     Smooth grid:     2891 G-vectors     FFT dimensions: (  20,  20,  20)

     Estimated max dynamical RAM per process >       1.76MB

     Estimated total allocated dynamical RAM >       7.03MB

     Initial potential from superposition of free atoms

     starting charge    7.99866, renormalised to    8.00000
     Starting wfc are    8 randomized atomic wfcs

     total cpu time spent up to now is        0.4 secs

     per-process dynamical memory:     8.6 Mb

     Self-consistent Calculation

     iteration #  1     ecut=    18.00 Ry     beta=0.70
     Davidson diagonalization with overlap
     ethr =  1.00E-02,  avg # of iterations =  2.0

     Threshold (ethr) on eigenvalues was too large:
     Diagonalizing with lowered threshold

     Davidson diagonalization with overlap
     ethr =  6.51E-04,  avg # of iterations =  1.0

     total cpu time spent up to now is        0.7 secs

     total energy              =     -19.18903974 Ry
     Harris-Foulkes estimate   =     -19.20056455 Ry
     estimated scf accuracy    <       0.05183106 Ry

     iteration #  2     ecut=    18.00 Ry     beta=0.70
     Davidson diagonalization with overlap
     ethr =  6.48E-04,  avg # of iterations =  1.0

     total cpu time spent up to now is        1.0 secs

     total energy              =     -19.19062144 Ry
     Harris-Foulkes estimate   =     -19.19079097 Ry
     estimated scf accuracy    <       0.00245521 Ry

     iteration #  3     ecut=    18.00 Ry     beta=0.70
     Davidson diagonalization with overlap
     ethr =  3.07E-05,  avg # of iterations =  1.9

     total cpu time spent up to now is        1.5 secs

     total energy              =     -19.19088442 Ry
     Harris-Foulkes estimate   =     -19.19089644 Ry
     estimated scf accuracy    <       0.00003829 Ry

     iteration #  4     ecut=    18.00 Ry     beta=0.70
     Davidson diagonalization with overlap
     ethr =  4.79E-07,  avg # of iterations =  2.9

     total cpu time spent up to now is        1.9 secs

     total energy              =     -19.19090842 Ry
     Harris-Foulkes estimate   =     -19.19090887 Ry
     estimated scf accuracy    <       0.00000198 Ry

     iteration #  5     ecut=    18.00 Ry     beta=0.70
     Davidson diagonalization with overlap
     ethr =  2.48E-08,  avg # of iterations =  2.1

     total cpu time spent up to now is        2.0 secs

     total energy              =     -19.19090882 Ry
     Harris-Foulkes estimate   =     -19.19090884 Ry
     estimated scf accuracy    <       0.00000004 Ry

     iteration #  6     ecut=    18.00 Ry     beta=0.70
     Davidson diagonalization with overlap
     ethr =  5.45E-10,  avg # of iterations =  2.7

     total cpu time spent up to now is        2.3 secs

     End of self-consistent calculation

          k =-0.0625 0.0625 0.0625 (   338 PWs)   bands (ev):

    -5.8629   5.2231   5.6759   5.6759

          k =-0.1875 0.1875-0.0625 (   355 PWs)   bands (ev):

    -5.6024   3.7293   4.8921   5.5581

          k =-0.3125 0.3125-0.1875 (   360 PWs)   bands (ev):

    -4.9729   1.5524   4.4111   5.1063

          k =-0.4375 0.4375-0.3125 (   364 PWs)   bands (ev):

    -4.0984  -0.2849   4.1957   4.7087

          k = 0.4375-0.4375 0.5625 (   364 PWs)   bands (ev):

    -3.6679  -0.9626   4.2422   4.4971

          k = 0.3125-0.3125 0.4375 (   357 PWs)   bands (ev):

    -4.3969   0.2575   4.5194   4.5215

          k = 0.1875-0.1875 0.3125 (   357 PWs)   bands (ev):

    -5.2195   2.2654   4.7916   4.9761

          k = 0.0625-0.0625 0.1875 (   346 PWs)   bands (ev):

    -5.7318   4.4711   5.2629   5.4109

          k =-0.0625 0.3125 0.0625 (   354 PWs)   bands (ev):

    -5.4705   3.5761   4.7201   4.7937

          k =-0.1875 0.4375-0.0625 (   358 PWs)   bands (ev):

    -4.9601   2.1024   3.7743   4.5418

          k =-0.3125 0.5625-0.1875 (   364 PWs)   bands (ev):

    -4.1398   0.2962   3.2814   4.1451

          k = 0.5625-0.3125 0.6875 (   368 PWs)   bands (ev):

    -3.4054  -0.8740   2.9961   4.0554

          k = 0.4375-0.1875 0.5625 (   364 PWs)   bands (ev):

    -3.8459  -0.2072   2.9295   4.3308

          k = 0.3125-0.0625 0.4375 (   361 PWs)   bands (ev):

    -4.7193   1.4699   3.2339   4.8234

          k = 0.1875 0.0625 0.3125 (   360 PWs)   bands (ev):

    -5.3441   2.9210   4.3300   5.1859

          k =-0.0625 0.5625 0.0625 (   357 PWs)   bands (ev):

    -4.5695   1.5921   3.6361   3.7543

          k =-0.1875 0.6875-0.0625 (   360 PWs)   bands (ev):

    -3.8379   0.3828   2.8729   3.4178

          k = 0.6875-0.1875 0.8125 (   367 PWs)   bands (ev):

    -2.9688  -0.7788   2.0565   3.3869

          k = 0.5625-0.0625 0.6875 (   369 PWs)   bands (ev):

    -3.0397  -0.6866   1.7166   3.7206

          k = 0.4375 0.0625 0.5625 (   365 PWs)   bands (ev):

    -3.9084   0.2497   2.2995   4.2884

          k = 0.3125 0.1875 0.4375 (   361 PWs)   bands (ev):

    -4.6097   0.8916   3.8790   4.7259

          k =-0.0625 0.8125 0.0625 (   364 PWs)   bands (ev):

    -3.2004  -0.4625   2.9663   3.1747

          k = 0.8125-0.0625 0.9375 (   363 PWs)   bands (ev):

    -2.3159  -1.4280   2.4291   2.9405

          k = 0.6875 0.0625 0.8125 (   370 PWs)   bands (ev):

    -2.4169  -1.2629   1.7248   3.2470

          k = 0.5625 0.1875 0.6875 (   367 PWs)   bands (ev):

    -3.1555  -0.8412   2.2450   3.8311

          k = 0.4375 0.3125 0.5625 (   366 PWs)   bands (ev):

    -3.7470  -0.6789   3.7030   4.4001

          k =-0.0625-0.9375 0.0625 (   362 PWs)   bands (ev):

    -2.3643  -1.4437   2.8321   3.0562

          k =-0.1875-0.8125-0.0625 (   361 PWs)   bands (ev):

    -3.1181  -0.5247   2.5810   3.0964

          k =-0.3125-0.6875-0.1875 (   365 PWs)   bands (ev):

    -3.5802  -0.2499   2.6296   3.6788

          k =-0.0625-0.6875 0.0625 (   362 PWs)   bands (ev):

    -3.9399   0.5590   3.2347   3.4092

          k =-0.1875-0.5625-0.0625 (   358 PWs)   bands (ev):

    -4.4556   1.2616   3.2797   3.9115

          k =-0.0625-0.4375 0.0625 (   353 PWs)   bands (ev):

    -5.0818   2.6075   4.1649   4.1990

          k =-0.1875 0.1875 0.1875 (   359 PWs)   bands (ev):

    -5.4741   3.0229   5.2450   5.2450

          k =-0.3125 0.3125 0.0625 (   362 PWs)   bands (ev):

    -5.0924   2.1875   3.7725   5.2590

          k =-0.4375 0.4375-0.0625 (   362 PWs)   bands (ev):

    -4.3653   0.8421   2.7197   4.7673

          k = 0.4375-0.4375 0.8125 (   367 PWs)   bands (ev):

    -3.4988  -0.6018   2.5617   4.2508

          k = 0.3125-0.3125 0.6875 (   368 PWs)   bands (ev):

    -3.4836  -0.6297   2.8506   3.9419

          k = 0.1875-0.1875 0.5625 (   358 PWs)   bands (ev):

    -4.3480   0.8390   3.4503   3.9205

          k =-0.1875 0.4375 0.1875 (   362 PWs)   bands (ev):

    -4.8422   1.5390   4.2526   4.3287

          k =-0.3125 0.5625 0.0625 (   361 PWs)   bands (ev):

    -4.2321   0.7711   2.7751   4.1369

          k = 0.5625-0.3125 0.9375 (   367 PWs)   bands (ev):

    -3.3665  -0.3110   2.0091   3.5873

          k = 0.4375-0.1875 0.8125 (   370 PWs)   bands (ev):

    -2.8950  -0.9049   2.0078   3.2846

          k = 0.3125-0.0625 0.6875 (   365 PWs)   bands (ev):

    -3.6418   0.0686   2.4225   3.4580

          k =-0.1875 0.6875 0.1875 (   362 PWs)   bands (ev):

    -3.7477   0.1282   2.7446   3.5975

          k = 0.6875-0.1875 1.0625 (   364 PWs)   bands (ev):

    -2.9657  -0.6612   2.1884   2.9378

          k = 0.5625-0.0625 0.9375 (   370 PWs)   bands (ev):

    -2.1820  -1.4015   1.8829   2.4525

          k = 0.4375 0.0625 0.8125 (   371 PWs)   bands (ev):

    -2.7689  -0.8620   1.8718   2.9138

          k =-0.1875-1.0625 0.1875 (   364 PWs)   bands (ev):

    -2.3388  -1.3774   1.9836   3.2631

          k =-0.3125-0.9375 0.0625 (   368 PWs)   bands (ev):

    -2.2411  -1.4098   2.0747   2.6587

          k =-0.1875-0.8125 0.1875 (   364 PWs)   bands (ev):

    -3.0601  -0.6220   2.2399   3.3757

          k =-0.3125 0.3125 0.3125 (   359 PWs)   bands (ev):

    -4.7381   0.8673   4.8392   4.8392

          k =-0.4375 0.4375 0.1875 (   362 PWs)   bands (ev):

    -4.2718   0.2969   3.4066   4.7525

          k = 0.4375-0.4375 1.0625 (   369 PWs)   bands (ev):

    -3.5014  -0.2431   1.9306   4.1882

          k = 0.3125-0.3125 0.9375 (   366 PWs)   bands (ev):

    -2.7040  -1.0125   1.6066   3.6568

          k =-0.3125 0.5625 0.3125 (   368 PWs)   bands (ev):

    -3.9675  -0.2464   3.7280   4.2059

          k = 0.5625-0.3125 1.1875 (   368 PWs)   bands (ev):

    -3.3650  -0.6087   2.4590   3.7469

          k = 0.4375-0.1875 1.0625 (   372 PWs)   bands (ev):

    -2.5692  -1.0808   1.6964   3.0550

          k =-0.3125-1.1875 0.3125 (   365 PWs)   bands (ev):

    -3.0172  -0.8857   2.0826   3.7542

          k =-0.4375 0.4375 0.4375 (   356 PWs)   bands (ev):

    -3.8769  -0.7334   4.6220   4.6220

          k = 0.4375-0.4375 1.3125 (   365 PWs)   bands (ev):

    -3.5370  -0.9089   3.4206   4.3620

     highest occupied level (ev):     5.6759

!    total energy              =     -19.19090885 Ry
     Harris-Foulkes estimate   =     -19.19090885 Ry
     estimated scf accuracy    <          7.2E-09 Ry

     The total energy is the sum of the following terms:

     one-electron contribution =       4.78472658 Ry
     hartree contribution      =       1.15287639 Ry
     xc contribution           =      -8.56967054 Ry
     ewald contribution        =     -16.55884128 Ry

     convergence has been achieved in   6 iterations

     Writing output data file silicon.10.410.save

     init_run     :      0.25s CPU      0.29s WALL (       1 calls)
     electrons    :      1.19s CPU      1.87s WALL (       1 calls)

     Called by init_run:
     wfcinit      :      0.07s CPU      0.08s WALL (       1 calls)
     potinit      :      0.01s CPU      0.02s WALL (       1 calls)

     Called by electrons:
     c_bands      :      0.81s CPU      1.22s WALL (       7 calls)
     sum_band     :      0.21s CPU      0.32s WALL (       7 calls)
     v_of_rho     :      0.10s CPU      0.19s WALL (       7 calls)
     newd         :      0.08s CPU      0.11s WALL (       7 calls)
     mix_rho      :      0.01s CPU      0.01s WALL (       7 calls)

     Called by c_bands:
     init_us_2    :      0.06s CPU      0.07s WALL (     900 calls)
     cegterg      :      0.67s CPU      1.04s WALL (     420 calls)

     Called by sum_band:
     sum_band:bec :      0.00s CPU      0.01s WALL (     420 calls)
     addusdens    :      0.07s CPU      0.10s WALL (       7 calls)

     Called by *egterg:
     h_psi        :      0.49s CPU      0.76s WALL (    1302 calls)
     s_psi        :      0.06s CPU      0.06s WALL (    1302 calls)
     g_psi        :      0.00s CPU      0.01s WALL (     822 calls)
     cdiaghg      :      0.08s CPU      0.11s WALL (    1182 calls)

     Called by h_psi:
     h_psi:pot    :      0.48s CPU      0.75s WALL (    1302 calls)
     h_psi:calbec :      0.08s CPU      0.18s WALL (    1302 calls)
     vloc_psi     :      0.34s CPU      0.51s WALL (    1302 calls)
     add_vuspsi   :      0.06s CPU      0.07s WALL (    1302 calls)

     General routines
     calbec       :      0.11s CPU      0.23s WALL (    1722 calls)
     fft          :      0.09s CPU      0.20s WALL (     112 calls)
     ffts         :      0.00s CPU      0.01s WALL (      14 calls)
     fftw         :      0.32s CPU      0.52s WALL (   11610 calls)
     interpolate  :      0.01s CPU      0.02s WALL (      14 calls)
     davcio       :      0.00s CPU      0.00s WALL (      60 calls)

     Parallel routines
     fft_scatter  :      0.21s CPU      0.48s WALL (   11736 calls)

     PWSCF        :     1.70s CPU         2.44s WALL


   This run was terminated on:  10: 4: 1  10Nov2017            

=------------------------------------------------------------------------------=
   JOB DONE.
=------------------------------------------------------------------------------=
