
     Program PHONON v.6.1 (svn rev. 13369) starts on  9Nov2017 at 16: 9:13 

     This program is part of the open-source Quantum ESPRESSO suite
     for quantum simulation of materials; please cite
         "P. Giannozzi et al., J. Phys.:Condens. Matter 21 395502 (2009);
          URL http://www.quantum-espresso.org", 
     in publications or presentations arising from this work. More details at
     http://www.quantum-espresso.org/quote

     Parallel version (MPI), running on     4 processors
     R & G space division:  proc/nbgrp/npool/nimage =       4

     Reading data from directory:
     ./silicon.10.3410.save

   Info: using nr1, nr2, nr3 values from input

   Info: using nr1, nr2, nr3 values from input

     IMPORTANT: XC functional enforced from input :
     Exchange-correlation      = SLA  PW   PBE  PBE ( 1  4  3  4 0 0)
     Any further DFT definition will be discarded
     Please, verify this is what you really want


     Parallelization info
     --------------------
     sticks:   dense  smooth     PW     G-vecs:    dense   smooth      PW
     Min          64      64     22                  709      709     140
     Max          67      67     23                  710      710     141
     Sum         265     265     91                 2837     2837     561


     Check: negative/imaginary core charge=   -0.000006    0.000000


     Dynamical matrices for ( 4, 4, 4)  uniform grid of q-points
     (   8q-points):
       N         xq(1)         xq(2)         xq(3) 
       1   0.000000000   0.000000000   0.000000000
       2  -0.250000000   0.250000000  -0.250000000
       3   0.500000000  -0.500000000   0.500000000
       4   0.000000000   0.500000000   0.000000000
       5   0.750000000  -0.250000000   0.750000000
       6   0.500000000   0.000000000   0.500000000
       7   0.000000000  -1.000000000   0.000000000
       8  -0.500000000  -1.000000000   0.000000000

     Calculation of q =    0.0000000   0.0000000   0.0000000

                                                                                

     bravais-lattice index     =            2
     lattice parameter (alat)  =      10.3410  a.u.
     unit-cell volume          =     276.4570 (a.u.)^3
     number of atoms/cell      =            2
     number of atomic types    =            1
     kinetic-energy cut-off    =      18.0000  Ry
     charge density cut-off    =      72.0000  Ry
     convergence threshold     =      1.0E-12
     beta                      =       0.7000
     number of iterations used =            4
     Exchange-correlation      = SLA  PW   PBE  PBE ( 1  4  3  4 0 0)


     celldm(1)=   10.34100  celldm(2)=    0.00000  celldm(3)=    0.00000
     celldm(4)=    0.00000  celldm(5)=    0.00000  celldm(6)=    0.00000

     crystal axes: (cart. coord. in units of alat)
               a(1) = ( -0.5000  0.0000  0.5000 )  
               a(2) = (  0.0000  0.5000  0.5000 )  
               a(3) = ( -0.5000  0.5000  0.0000 )  

     reciprocal axes: (cart. coord. in units 2 pi/alat)
               b(1) = ( -1.0000 -1.0000  1.0000 )  
               b(2) = (  1.0000  1.0000  1.0000 )  
               b(3) = ( -1.0000  1.0000 -1.0000 )  


     Atoms inside the unit cell: 

     Cartesian axes

     site n.  atom      mass           positions (alat units)
        1     Si  28.0860   tau(    1) = (    0.00000    0.00000    0.00000  )
        2     Si  28.0860   tau(    2) = (    0.25000    0.25000    0.25000  )

     Computing dynamical matrix for 
                    q = (   0.0000000   0.0000000   0.0000000 )

     49 Sym.Ops. (with q -> -q+G )


     G cutoff =  195.0284  (    710 G-vectors)     FFT grid: ( 20, 20, 20)
     number of k points=    10

     PseudoPot. # 1 for Si read from file:
     /home/max/quantum_espresso/qe-6.1/pseudo/si_pbe_v1.uspp.F.UPF.txt
     MD5 check sum: a056efeee980c13900f22a371efd63c1
     Pseudo is Ultrasoft + core correction, Zval =  4.0
     Generated by new atomic code, or converted to UPF format
     Using radial grid of  899 points,  6 beta functions with: 
                l(1) =   0
                l(2) =   0
                l(3) =   1
                l(4) =   1
                l(5) =   2
                l(6) =   2
     Q(r) pseudized with  8 coefficients,  rinner =    0.900   0.900   0.900
                                                       0.900   0.900

     Mode symmetry, O_h (m-3m)  point group:


     Electric field:
     Dielectric constant
     Born effective charges in two ways 


     Atomic displacements:
     There are   2 irreducible representations

     Representation     1      3 modes -T_2g G_25' G_5+  To be done

     Representation     2      3 modes -T_1u G_15  G_4-  To be done



     Alpha used in Ewald sum =   0.7000
     PHONON       :     0.38s CPU         0.41s WALL


     Electric Fields Calculation

      iter #   1 total cpu time :     1.0 secs   av.it.:   5.6
      thresh= 1.000E-02 alpha_mix =  0.700 |ddv_scf|^2 =  9.344E-07

      iter #   2 total cpu time :     1.1 secs   av.it.:   9.9
      thresh= 9.666E-05 alpha_mix =  0.700 |ddv_scf|^2 =  5.949E-08

      iter #   3 total cpu time :     1.3 secs   av.it.:   9.8
      thresh= 2.439E-05 alpha_mix =  0.700 |ddv_scf|^2 =  4.676E-09

      iter #   4 total cpu time :     1.5 secs   av.it.:   8.9
      thresh= 6.838E-06 alpha_mix =  0.700 |ddv_scf|^2 =  2.808E-11

      iter #   5 total cpu time :     1.6 secs   av.it.:   9.1
      thresh= 5.299E-07 alpha_mix =  0.700 |ddv_scf|^2 =  1.458E-14

     End of electric fields calculation

          Dielectric constant in cartesian axis 

          (      13.884275451       0.000000000       0.000000000 )
          (       0.000000000      13.884275451      -0.000000000 )
          (       0.000000000      -0.000000000      13.884275451 )

          Effective charges (d Force / dE) in cartesian axis

           atom      1   Si 
      Ex  (       -0.03564       -0.00000        0.00000 )
      Ey  (       -0.00000       -0.03564        0.00000 )
      Ez  (        0.00000       -0.00000       -0.03564 )
           atom      2   Si 
      Ex  (       -0.03564        0.00000        0.00000 )
      Ey  (        0.00000       -0.03564        0.00000 )
      Ez  (        0.00000        0.00000       -0.03564 )


     Representation #  1 modes #   1  2  3

     Self-consistent Calculation

      iter #   1 total cpu time :     2.0 secs   av.it.:   5.0
      thresh= 1.000E-02 alpha_mix =  0.700 |ddv_scf|^2 =  2.232E-07

      iter #   2 total cpu time :     2.2 secs   av.it.:   9.9
      thresh= 4.725E-05 alpha_mix =  0.700 |ddv_scf|^2 =  1.381E-08

      iter #   3 total cpu time :     2.4 secs   av.it.:   9.3
      thresh= 1.175E-05 alpha_mix =  0.700 |ddv_scf|^2 =  8.579E-10

      iter #   4 total cpu time :     2.6 secs   av.it.:   9.0
      thresh= 2.929E-06 alpha_mix =  0.700 |ddv_scf|^2 =  1.896E-12

      iter #   5 total cpu time :     2.9 secs   av.it.:   9.5
      thresh= 1.377E-07 alpha_mix =  0.700 |ddv_scf|^2 =  1.333E-14

     End of self-consistent calculation

     Convergence has been achieved 


     Representation #  2 modes #   4  5  6

     Self-consistent Calculation

      iter #   1 total cpu time :     3.1 secs   av.it.:   5.0
      thresh= 1.000E-02 alpha_mix =  0.700 |ddv_scf|^2 =  1.848E-07

      iter #   2 total cpu time :     3.3 secs   av.it.:   9.6
      thresh= 4.299E-05 alpha_mix =  0.700 |ddv_scf|^2 =  1.498E-08

      iter #   3 total cpu time :     3.5 secs   av.it.:   9.3
      thresh= 1.224E-05 alpha_mix =  0.700 |ddv_scf|^2 =  9.112E-10

      iter #   4 total cpu time :     3.7 secs   av.it.:   9.5
      thresh= 3.019E-06 alpha_mix =  0.700 |ddv_scf|^2 =  5.313E-12

      iter #   5 total cpu time :     3.8 secs   av.it.:   9.0
      thresh= 2.305E-07 alpha_mix =  0.700 |ddv_scf|^2 =  4.654E-15

     End of self-consistent calculation

     Convergence has been achieved 

     Number of q in the star =    1
     List of q in the star:
          1   0.000000000   0.000000000   0.000000000

          Dielectric constant in cartesian axis 

          (      13.884275451       0.000000000       0.000000000 )
          (       0.000000000      13.884275451      -0.000000000 )
          (       0.000000000      -0.000000000      13.884275451 )

          Effective charges (d Force / dE) in cartesian axis

           atom      1   Si 
      Ex  (       -0.03564       -0.00000        0.00000 )
      Ey  (       -0.00000       -0.03564        0.00000 )
      Ez  (        0.00000       -0.00000       -0.03564 )
           atom      2   Si 
      Ex  (       -0.03564        0.00000        0.00000 )
      Ey  (        0.00000       -0.03564        0.00000 )
      Ez  (        0.00000        0.00000       -0.03564 )

          Effective charges (d P / du) in cartesian axis 

           atom      1   Si 
      Px  (       -0.07508        0.00000        0.00000 )
      Py  (        0.00000       -0.07508        0.00000 )
      Pz  (        0.00000       -0.00000       -0.07508 )
           atom      2   Si 
      Px  (       -0.07508       -0.00000       -0.00000 )
      Py  (       -0.00000       -0.07508        0.00000 )
      Pz  (       -0.00000        0.00000       -0.07508 )

     Diagonalizing the dynamical matrix

     q = (    0.000000000   0.000000000   0.000000000 ) 

 **************************************************************************
     freq (    1) =       1.895938 [THz] =      63.241675 [cm-1]
     freq (    2) =       1.895938 [THz] =      63.241675 [cm-1]
     freq (    3) =       1.895938 [THz] =      63.241675 [cm-1]
     freq (    4) =      15.354267 [THz] =     512.163228 [cm-1]
     freq (    5) =      15.354267 [THz] =     512.163228 [cm-1]
     freq (    6) =      15.354267 [THz] =     512.163228 [cm-1]
 **************************************************************************

     Mode symmetry, O_h (m-3m)  point group:

     freq (  1 -  3) =         63.2  [cm-1]   --> T_1u G_15  G_4- I  
     freq (  4 -  6) =        512.2  [cm-1]   --> T_2g G_25' G_5+ R  

     Calculation of q =   -0.2500000   0.2500000  -0.2500000

   Info: using nr1, nr2, nr3 values from input

   Info: using nr1, nr2, nr3 values from input

     Parallelization info
     --------------------
     sticks:   dense  smooth     PW     G-vecs:    dense   smooth      PW
     Min          64      64     24                  709      709     161
     Max          67      67     25                  710      710     162
     Sum         265     265     97                 2837     2837     645



     bravais-lattice index     =            2
     lattice parameter (alat)  =      10.3410  a.u.
     unit-cell volume          =     276.4570 (a.u.)^3
     number of atoms/cell      =            2
     number of atomic types    =            1
     number of electrons       =         8.00
     number of Kohn-Sham states=            4
     kinetic-energy cutoff     =      18.0000  Ry
     charge density cutoff     =      72.0000  Ry
     Exchange-correlation      = SLA  PW   PBE  PBE ( 1  4  3  4 0 0)

     celldm(1)=  10.341000  celldm(2)=   0.000000  celldm(3)=   0.000000
     celldm(4)=   0.000000  celldm(5)=   0.000000  celldm(6)=   0.000000

     crystal axes: (cart. coord. in units of alat)
               a(1) = (  -0.500000   0.000000   0.500000 )  
               a(2) = (   0.000000   0.500000   0.500000 )  
               a(3) = (  -0.500000   0.500000   0.000000 )  

     reciprocal axes: (cart. coord. in units 2 pi/alat)
               b(1) = ( -1.000000 -1.000000  1.000000 )  
               b(2) = (  1.000000  1.000000  1.000000 )  
               b(3) = ( -1.000000  1.000000 -1.000000 )  


     PseudoPot. # 1 for Si read from file:
     /home/max/quantum_espresso/qe-6.1/pseudo/si_pbe_v1.uspp.F.UPF.txt
     MD5 check sum: a056efeee980c13900f22a371efd63c1
     Pseudo is Ultrasoft + core correction, Zval =  4.0
     Generated by new atomic code, or converted to UPF format
     Using radial grid of  899 points,  6 beta functions with: 
                l(1) =   0
                l(2) =   0
                l(3) =   1
                l(4) =   1
                l(5) =   2
                l(6) =   2
     Q(r) pseudized with  8 coefficients,  rinner =    0.900   0.900   0.900
                                                       0.900   0.900

     atomic species   valence    mass     pseudopotential
        Si             4.00    28.08600     Si( 1.00)

     48 Sym. Ops., with inversion, found



   Cartesian axes

     site n.     atom                  positions (alat units)
         1           Si  tau(   1) = (   0.0000000   0.0000000   0.0000000  )
         2           Si  tau(   2) = (   0.2500000   0.2500000   0.2500000  )

     number of k points=   120

     Number of k-points >= 100: set verbosity='high' to print them.

     Dense  grid:     2837 G-vectors     FFT dimensions: (  20,  20,  20)

     Estimated max dynamical RAM per process >       0.33MB

     Estimated total allocated dynamical RAM >       1.32MB

     Check: negative/imaginary core charge=   -0.000006    0.000000

     The potential is recalculated from file :
     ./_ph0/silicon.10.3410.save/charge-density.dat

     Starting wfc are    8 atomic wfcs

     Band Structure Calculation
     Davidson diagonalization with overlap

     ethr =  1.25E-10,  avg # of iterations = 11.7

     total cpu time spent up to now is        0.9 secs

     End of band structure calculation

     Number of k-points >= 100: set verbosity='high' to print the bands.

     highest occupied level (ev):     5.6785

     Writing output data file silicon.10.3410.save

                                                                                

     bravais-lattice index     =            2
     lattice parameter (alat)  =      10.3410  a.u.
     unit-cell volume          =     276.4570 (a.u.)^3
     number of atoms/cell      =            2
     number of atomic types    =            1
     kinetic-energy cut-off    =      18.0000  Ry
     charge density cut-off    =      72.0000  Ry
     convergence threshold     =      1.0E-12
     beta                      =       0.7000
     number of iterations used =            4
     Exchange-correlation      = SLA  PW   PBE  PBE ( 1  4  3  4 0 0)


     celldm(1)=   10.34100  celldm(2)=    0.00000  celldm(3)=    0.00000
     celldm(4)=    0.00000  celldm(5)=    0.00000  celldm(6)=    0.00000

     crystal axes: (cart. coord. in units of alat)
               a(1) = ( -0.5000  0.0000  0.5000 )  
               a(2) = (  0.0000  0.5000  0.5000 )  
               a(3) = ( -0.5000  0.5000  0.0000 )  

     reciprocal axes: (cart. coord. in units 2 pi/alat)
               b(1) = ( -1.0000 -1.0000  1.0000 )  
               b(2) = (  1.0000  1.0000  1.0000 )  
               b(3) = ( -1.0000  1.0000 -1.0000 )  


     Atoms inside the unit cell: 

     Cartesian axes

     site n.  atom      mass           positions (alat units)
        1     Si  28.0860   tau(    1) = (    0.00000    0.00000    0.00000  )
        2     Si  28.0860   tau(    2) = (    0.25000    0.25000    0.25000  )

     Computing dynamical matrix for 
                    q = (  -0.2500000   0.2500000  -0.2500000 )

      6 Sym.Ops. (no q -> -q+G )


     G cutoff =  195.0284  (    710 G-vectors)     FFT grid: ( 20, 20, 20)
     number of k points=   120

     PseudoPot. # 1 for Si read from file:
     /home/max/quantum_espresso/qe-6.1/pseudo/si_pbe_v1.uspp.F.UPF.txt
     MD5 check sum: a056efeee980c13900f22a371efd63c1
     Pseudo is Ultrasoft + core correction, Zval =  4.0
     Generated by new atomic code, or converted to UPF format
     Using radial grid of  899 points,  6 beta functions with: 
                l(1) =   0
                l(2) =   0
                l(3) =   1
                l(4) =   1
                l(5) =   2
                l(6) =   2
     Q(r) pseudized with  8 coefficients,  rinner =    0.900   0.900   0.900
                                                       0.900   0.900

     Mode symmetry, C_3v (3m)   point group:


     Atomic displacements:
     There are   4 irreducible representations

     Representation     1      1 modes -A_1  L_1  To be done

     Representation     2      1 modes -A_1  L_1  To be done

     Representation     3      2 modes -E    L_3  To be done

     Representation     4      2 modes -E    L_3  To be done



     Alpha used in Ewald sum =   0.7000
     PHONON       :     5.01s CPU         5.25s WALL



     Representation #  1 mode #   1

     Self-consistent Calculation

      iter #   1 total cpu time :     5.5 secs   av.it.:   5.5
      thresh= 1.000E-02 alpha_mix =  0.700 |ddv_scf|^2 =  2.466E-03

      iter #   2 total cpu time :     5.7 secs   av.it.:   7.5
      thresh= 4.966E-03 alpha_mix =  0.700 |ddv_scf|^2 =  3.725E-02

      iter #   3 total cpu time :     5.9 secs   av.it.:   6.3
      thresh= 1.000E-02 alpha_mix =  0.700 |ddv_scf|^2 =  1.714E-06

      iter #   4 total cpu time :     6.2 secs   av.it.:   8.2
      thresh= 1.309E-04 alpha_mix =  0.700 |ddv_scf|^2 =  1.162E-07

      iter #   5 total cpu time :     6.4 secs   av.it.:   8.1
      thresh= 3.409E-05 alpha_mix =  0.700 |ddv_scf|^2 =  4.747E-09

      iter #   6 total cpu time :     6.9 secs   av.it.:   8.0
      thresh= 6.890E-06 alpha_mix =  0.700 |ddv_scf|^2 =  5.385E-09

      iter #   7 total cpu time :     7.1 secs   av.it.:   6.0
      thresh= 7.338E-06 alpha_mix =  0.700 |ddv_scf|^2 =  4.057E-10

      iter #   8 total cpu time :     7.3 secs   av.it.:   7.3
      thresh= 2.014E-06 alpha_mix =  0.700 |ddv_scf|^2 =  4.135E-12

      iter #   9 total cpu time :     7.5 secs   av.it.:   7.1
      thresh= 2.033E-07 alpha_mix =  0.700 |ddv_scf|^2 =  1.620E-13

     End of self-consistent calculation

     Convergence has been achieved 


     Representation #  2 mode #   2

     Self-consistent Calculation

      iter #   1 total cpu time :     7.8 secs   av.it.:   5.5
      thresh= 1.000E-02 alpha_mix =  0.700 |ddv_scf|^2 =  2.466E-03

      iter #   2 total cpu time :     8.0 secs   av.it.:   7.5
      thresh= 4.966E-03 alpha_mix =  0.700 |ddv_scf|^2 =  3.725E-02

      iter #   3 total cpu time :     8.2 secs   av.it.:   6.3
      thresh= 1.000E-02 alpha_mix =  0.700 |ddv_scf|^2 =  1.714E-06

      iter #   4 total cpu time :     8.5 secs   av.it.:   8.2
      thresh= 1.309E-04 alpha_mix =  0.700 |ddv_scf|^2 =  1.162E-07

      iter #   5 total cpu time :     8.9 secs   av.it.:   8.1
      thresh= 3.409E-05 alpha_mix =  0.700 |ddv_scf|^2 =  4.747E-09

      iter #   6 total cpu time :     9.2 secs   av.it.:   8.0
      thresh= 6.890E-06 alpha_mix =  0.700 |ddv_scf|^2 =  5.385E-09

      iter #   7 total cpu time :     9.4 secs   av.it.:   6.0
      thresh= 7.338E-06 alpha_mix =  0.700 |ddv_scf|^2 =  4.057E-10

      iter #   8 total cpu time :     9.6 secs   av.it.:   7.3
      thresh= 2.014E-06 alpha_mix =  0.700 |ddv_scf|^2 =  4.135E-12

      iter #   9 total cpu time :     9.9 secs   av.it.:   7.1
      thresh= 2.033E-07 alpha_mix =  0.700 |ddv_scf|^2 =  1.620E-13

     End of self-consistent calculation

     Convergence has been achieved 


     Representation #  3 modes #   3  4

     Self-consistent Calculation

      iter #   1 total cpu time :    10.3 secs   av.it.:   4.9
      thresh= 1.000E-02 alpha_mix =  0.700 |ddv_scf|^2 =  5.706E-07

      iter #   2 total cpu time :    11.0 secs   av.it.:   9.5
      thresh= 7.554E-05 alpha_mix =  0.700 |ddv_scf|^2 =  4.289E-08

      iter #   3 total cpu time :    11.6 secs   av.it.:   9.2
      thresh= 2.071E-05 alpha_mix =  0.700 |ddv_scf|^2 =  3.708E-09

      iter #   4 total cpu time :    12.1 secs   av.it.:   8.9
      thresh= 6.089E-06 alpha_mix =  0.700 |ddv_scf|^2 =  1.114E-11

      iter #   5 total cpu time :    12.8 secs   av.it.:   9.2
      thresh= 3.337E-07 alpha_mix =  0.700 |ddv_scf|^2 =  4.982E-13

     End of self-consistent calculation

     Convergence has been achieved 


     Representation #  4 modes #   5  6

     Self-consistent Calculation

      iter #   1 total cpu time :    13.3 secs   av.it.:   5.0
      thresh= 1.000E-02 alpha_mix =  0.700 |ddv_scf|^2 =  5.705E-07

      iter #   2 total cpu time :    13.8 secs   av.it.:   9.6
      thresh= 7.553E-05 alpha_mix =  0.700 |ddv_scf|^2 =  4.285E-08

      iter #   3 total cpu time :    14.4 secs   av.it.:   9.4
      thresh= 2.070E-05 alpha_mix =  0.700 |ddv_scf|^2 =  3.705E-09

      iter #   4 total cpu time :    15.1 secs   av.it.:   9.1
      thresh= 6.087E-06 alpha_mix =  0.700 |ddv_scf|^2 =  1.114E-11

      iter #   5 total cpu time :    15.7 secs   av.it.:   9.2
      thresh= 3.338E-07 alpha_mix =  0.700 |ddv_scf|^2 =  4.983E-13

     End of self-consistent calculation

     Convergence has been achieved 

     Number of q in the star =    8
     List of q in the star:
          1  -0.250000000   0.250000000  -0.250000000
          2   0.250000000  -0.250000000  -0.250000000
          3   0.250000000  -0.250000000   0.250000000
          4   0.250000000   0.250000000   0.250000000
          5  -0.250000000  -0.250000000  -0.250000000
          6  -0.250000000  -0.250000000   0.250000000
          7  -0.250000000   0.250000000   0.250000000
          8   0.250000000   0.250000000  -0.250000000

     Diagonalizing the dynamical matrix

     q = (   -0.250000000   0.250000000  -0.250000000 ) 

 **************************************************************************
     freq (    1) =       3.397454 [THz] =     113.326856 [cm-1]
     freq (    2) =       3.397454 [THz] =     113.326856 [cm-1]
     freq (    3) =       6.927435 [THz] =     231.074344 [cm-1]
     freq (    4) =      14.432650 [THz] =     481.421380 [cm-1]
     freq (    5) =      14.743209 [THz] =     491.780509 [cm-1]
     freq (    6) =      14.743209 [THz] =     491.780509 [cm-1]
 **************************************************************************

     Mode symmetry, C_3v (3m)   point group:

     freq (  1 -  2) =        113.3  [cm-1]   --> E    L_3           
     freq (  3 -  3) =        231.1  [cm-1]   --> A_1  L_1           
     freq (  4 -  4) =        481.4  [cm-1]   --> A_1  L_1           
     freq (  5 -  6) =        491.8  [cm-1]   --> E    L_3           

     Calculation of q =    0.5000000  -0.5000000   0.5000000

   Info: using nr1, nr2, nr3 values from input

   Info: using nr1, nr2, nr3 values from input

     Parallelization info
     --------------------
     sticks:   dense  smooth     PW     G-vecs:    dense   smooth      PW
     Min          64      64     27                  709      709     186
     Max          67      67     28                  710      710     189
     Sum         265     265    109                 2837     2837     749



     bravais-lattice index     =            2
     lattice parameter (alat)  =      10.3410  a.u.
     unit-cell volume          =     276.4570 (a.u.)^3
     number of atoms/cell      =            2
     number of atomic types    =            1
     number of electrons       =         8.00
     number of Kohn-Sham states=            4
     kinetic-energy cutoff     =      18.0000  Ry
     charge density cutoff     =      72.0000  Ry
     Exchange-correlation      = SLA  PW   PBE  PBE ( 1  4  3  4 0 0)

     celldm(1)=  10.341000  celldm(2)=   0.000000  celldm(3)=   0.000000
     celldm(4)=   0.000000  celldm(5)=   0.000000  celldm(6)=   0.000000

     crystal axes: (cart. coord. in units of alat)
               a(1) = (  -0.500000   0.000000   0.500000 )  
               a(2) = (   0.000000   0.500000   0.500000 )  
               a(3) = (  -0.500000   0.500000   0.000000 )  

     reciprocal axes: (cart. coord. in units 2 pi/alat)
               b(1) = ( -1.000000 -1.000000  1.000000 )  
               b(2) = (  1.000000  1.000000  1.000000 )  
               b(3) = ( -1.000000  1.000000 -1.000000 )  


     PseudoPot. # 1 for Si read from file:
     /home/max/quantum_espresso/qe-6.1/pseudo/si_pbe_v1.uspp.F.UPF.txt
     MD5 check sum: a056efeee980c13900f22a371efd63c1
     Pseudo is Ultrasoft + core correction, Zval =  4.0
     Generated by new atomic code, or converted to UPF format
     Using radial grid of  899 points,  6 beta functions with: 
                l(1) =   0
                l(2) =   0
                l(3) =   1
                l(4) =   1
                l(5) =   2
                l(6) =   2
     Q(r) pseudized with  8 coefficients,  rinner =    0.900   0.900   0.900
                                                       0.900   0.900

     atomic species   valence    mass     pseudopotential
        Si             4.00    28.08600     Si( 1.00)

     48 Sym. Ops., with inversion, found



   Cartesian axes

     site n.     atom                  positions (alat units)
         1           Si  tau(   1) = (   0.0000000   0.0000000   0.0000000  )
         2           Si  tau(   2) = (   0.2500000   0.2500000   0.2500000  )

     number of k points=    60
                       cart. coord. in units 2pi/alat
        k(    1) = (  -0.1250000   0.1250000   0.1250000), wk =   0.0468750
        k(    2) = (   0.3750000  -0.3750000   0.6250000), wk =   0.0000000
        k(    3) = (  -0.3750000   0.3750000  -0.1250000), wk =   0.0468750
        k(    4) = (   0.1250000  -0.1250000   0.3750000), wk =   0.0000000
        k(    5) = (   0.3750000  -0.3750000   0.6250000), wk =   0.0468750
        k(    6) = (   0.8750000  -0.8750000   1.1250000), wk =   0.0000000
        k(    7) = (   0.1250000  -0.1250000   0.3750000), wk =   0.0468750
        k(    8) = (   0.6250000  -0.6250000   0.8750000), wk =   0.0000000
        k(    9) = (  -0.1250000   0.6250000   0.1250000), wk =   0.0937500
        k(   10) = (   0.3750000   0.1250000   0.6250000), wk =   0.0000000
        k(   11) = (   0.6250000  -0.1250000   0.8750000), wk =   0.0937500
        k(   12) = (   1.1250000  -0.6250000   1.3750000), wk =   0.0000000
        k(   13) = (   0.3750000   0.1250000   0.6250000), wk =   0.0937500
        k(   14) = (   0.8750000  -0.3750000   1.1250000), wk =   0.0000000
        k(   15) = (  -0.1250000  -0.8750000   0.1250000), wk =   0.0937500
        k(   16) = (   0.3750000  -1.3750000   0.6250000), wk =   0.0000000
        k(   17) = (  -0.3750000   0.3750000   0.3750000), wk =   0.0468750
        k(   18) = (   0.1250000  -0.1250000   0.8750000), wk =   0.0000000
        k(   19) = (   0.3750000  -0.3750000   1.1250000), wk =   0.0468750
        k(   20) = (   0.8750000  -0.8750000   1.6250000), wk =   0.0000000
        k(   21) = (   0.1250000  -0.1250000   0.1250000), wk =   0.0156250
        k(   22) = (   0.6250000  -0.6250000   0.6250000), wk =   0.0000000
        k(   23) = (  -0.3750000  -0.3750000  -0.1250000), wk =   0.0937500
        k(   24) = (   0.1250000  -0.8750000   0.3750000), wk =   0.0000000
        k(   25) = (  -0.1250000  -0.3750000   0.3750000), wk =   0.0468750
        k(   26) = (   0.3750000  -0.8750000   0.8750000), wk =   0.0000000
        k(   27) = (   0.3750000   0.3750000   0.6250000), wk =   0.0937500
        k(   28) = (   0.8750000  -0.1250000   1.1250000), wk =   0.0000000
        k(   29) = (   0.6250000   0.3750000  -0.3750000), wk =   0.0468750
        k(   30) = (   1.1250000  -0.1250000   0.1250000), wk =   0.0000000
        k(   31) = (   0.1250000   0.1250000   0.3750000), wk =   0.0937500
        k(   32) = (   0.6250000  -0.3750000   0.8750000), wk =   0.0000000
        k(   33) = (   0.3750000   0.1250000  -0.1250000), wk =   0.0468750
        k(   34) = (   0.8750000  -0.3750000   0.3750000), wk =   0.0000000
        k(   35) = (  -0.1250000  -0.6250000  -0.1250000), wk =   0.0468750
        k(   36) = (   0.3750000  -1.1250000   0.3750000), wk =   0.0000000
        k(   37) = (   0.1250000  -0.6250000   0.1250000), wk =   0.0468750
        k(   38) = (   0.6250000  -1.1250000   0.6250000), wk =   0.0000000
        k(   39) = (   0.6250000   0.1250000   0.8750000), wk =   0.0937500
        k(   40) = (   1.1250000  -0.3750000   1.3750000), wk =   0.0000000
        k(   41) = (  -0.8750000   0.1250000   0.6250000), wk =   0.0937500
        k(   42) = (  -0.3750000  -0.3750000   1.1250000), wk =   0.0000000
        k(   43) = (   0.8750000   0.1250000  -0.6250000), wk =   0.0937500
        k(   44) = (   1.3750000  -0.3750000  -0.1250000), wk =   0.0000000
        k(   45) = (   0.3750000  -0.1250000   0.6250000), wk =   0.0937500
        k(   46) = (   0.8750000  -0.6250000   1.1250000), wk =   0.0000000
        k(   47) = (  -0.6250000  -0.1250000   0.3750000), wk =   0.0937500
        k(   48) = (  -0.1250000  -0.6250000   0.8750000), wk =   0.0000000
        k(   49) = (   0.6250000  -0.1250000  -0.3750000), wk =   0.0937500
        k(   50) = (   1.1250000  -0.6250000   0.1250000), wk =   0.0000000
        k(   51) = (  -0.1250000   0.8750000  -0.1250000), wk =   0.0468750
        k(   52) = (   0.3750000   0.3750000   0.3750000), wk =   0.0000000
        k(   53) = (   0.1250000   0.8750000   0.1250000), wk =   0.0468750
        k(   54) = (   0.6250000   0.3750000   0.6250000), wk =   0.0000000
        k(   55) = (   0.3750000  -0.3750000   0.3750000), wk =   0.0156250
        k(   56) = (   0.8750000  -0.8750000   0.8750000), wk =   0.0000000
        k(   57) = (   0.3750000   0.3750000   1.1250000), wk =   0.0937500
        k(   58) = (   0.8750000  -0.1250000   1.6250000), wk =   0.0000000
        k(   59) = (   1.1250000   0.3750000  -0.3750000), wk =   0.0468750
        k(   60) = (   1.6250000  -0.1250000   0.1250000), wk =   0.0000000

     Dense  grid:     2837 G-vectors     FFT dimensions: (  20,  20,  20)

     Estimated max dynamical RAM per process >       0.33MB

     Estimated total allocated dynamical RAM >       1.32MB

     Check: negative/imaginary core charge=   -0.000006    0.000000

     The potential is recalculated from file :
     ./_ph0/silicon.10.3410.save/charge-density.dat

     Starting wfc are    8 atomic wfcs

     Band Structure Calculation
     Davidson diagonalization with overlap

     ethr =  1.25E-10,  avg # of iterations = 11.7

     total cpu time spent up to now is        1.5 secs

     End of band structure calculation

          k =-0.1250 0.1250 0.1250 (   338 PWs)   bands (ev):

    -5.6381   4.3699   5.6785   5.6785

          k = 0.3750-0.3750 0.6250 (   361 PWs)   bands (ev):

    -3.4840  -0.6865   3.7188   4.4292

          k =-0.3750 0.3750-0.1250 (   352 PWs)   bands (ev):

    -4.6163   1.3813   3.7016   5.1972

          k = 0.1250-0.1250 0.3750 (   353 PWs)   bands (ev):

    -5.1128   2.7525   4.6741   4.7364

          k = 0.3750-0.3750 0.6250 (   361 PWs)   bands (ev):

    -3.4840  -0.6865   3.7188   4.4292

          k = 0.8750-0.8750 1.1250 (   338 PWs)   bands (ev):

    -5.6381   4.3699   5.6785   5.6785

          k = 0.1250-0.1250 0.3750 (   353 PWs)   bands (ev):

    -5.1128   2.7525   4.6741   4.7364

          k = 0.6250-0.6250 0.8750 (   352 PWs)   bands (ev):

    -4.6163   1.3813   3.7016   5.1972

          k =-0.1250 0.6250 0.1250 (   351 PWs)   bands (ev):

    -4.0856   1.0410   3.3554   3.8027

          k = 0.3750 0.1250 0.6250 (   357 PWs)   bands (ev):

    -3.6728   0.1746   2.7165   4.0777

          k = 0.6250-0.1250 0.8750 (   361 PWs)   bands (ev):

    -2.4541  -0.9165   2.0111   3.0798

          k = 1.1250-0.6250 1.3750 (   352 PWs)   bands (ev):

    -4.6163   1.3813   3.7016   5.1972

          k = 0.3750 0.1250 0.6250 (   357 PWs)   bands (ev):

    -3.6728   0.1746   2.7165   4.0777

          k = 0.8750-0.3750 1.1250 (   351 PWs)   bands (ev):

    -4.0856   1.0410   3.3554   3.8027

          k =-0.1250-0.8750 0.1250 (   358 PWs)   bands (ev):

    -2.6196  -0.8200   2.6156   3.3371

          k = 0.3750-1.3750 0.6250 (   361 PWs)   bands (ev):

    -3.4840  -0.6865   3.7188   4.4292

          k =-0.3750 0.3750 0.3750 (   353 PWs)   bands (ev):

    -4.1864   0.0992   4.8916   4.8916

          k = 0.1250-0.1250 0.8750 (   358 PWs)   bands (ev):

    -2.6196  -0.8200   2.6156   3.3371

          k = 0.3750-0.3750 1.1250 (   361 PWs)   bands (ev):

    -2.9898  -0.6092   2.0670   4.1142

          k = 0.8750-0.8750 1.6250 (   351 PWs)   bands (ev):

    -4.0856   1.0410   3.3554   3.8027

          k = 0.1250-0.1250 0.1250 (   338 PWs)   bands (ev):

    -5.6381   4.3699   5.6785   5.6785

          k = 0.6250-0.6250 0.6250 (   353 PWs)   bands (ev):

    -4.1864   0.0992   4.8916   4.8916

          k =-0.3750-0.3750-0.1250 (   352 PWs)   bands (ev):

    -4.6163   1.3813   3.7016   5.1972

          k = 0.1250-0.8750 0.3750 (   361 PWs)   bands (ev):

    -2.4541  -0.9165   2.0111   3.0798

          k =-0.1250-0.3750 0.3750 (   352 PWs)   bands (ev):

    -4.6163   1.3813   3.7016   5.1972

          k = 0.3750-0.8750 0.8750 (   351 PWs)   bands (ev):

    -4.0856   1.0410   3.3554   3.8027

          k = 0.3750 0.3750 0.6250 (   361 PWs)   bands (ev):

    -3.4840  -0.6865   3.7188   4.4292

          k = 0.8750-0.1250 1.1250 (   358 PWs)   bands (ev):

    -2.6196  -0.8200   2.6156   3.3371

          k = 0.6250 0.3750-0.3750 (   361 PWs)   bands (ev):

    -3.4840  -0.6865   3.7188   4.4292

          k = 1.1250-0.1250 0.1250 (   358 PWs)   bands (ev):

    -2.6196  -0.8200   2.6156   3.3371

          k = 0.1250 0.1250 0.3750 (   353 PWs)   bands (ev):

    -5.1128   2.7525   4.6741   4.7364

          k = 0.6250-0.3750 0.8750 (   357 PWs)   bands (ev):

    -3.6728   0.1746   2.7165   4.0777

          k = 0.3750 0.1250-0.1250 (   353 PWs)   bands (ev):

    -5.1128   2.7525   4.6741   4.7364

          k = 0.8750-0.3750 0.3750 (   361 PWs)   bands (ev):

    -2.9898  -0.6092   2.0670   4.1142

          k =-0.1250-0.6250-0.1250 (   351 PWs)   bands (ev):

    -4.0856   1.0410   3.3554   3.8027

          k = 0.3750-1.1250 0.3750 (   361 PWs)   bands (ev):

    -2.9898  -0.6092   2.0670   4.1142

          k = 0.1250-0.6250 0.1250 (   351 PWs)   bands (ev):

    -4.0856   1.0410   3.3554   3.8027

          k = 0.6250-1.1250 0.6250 (   352 PWs)   bands (ev):

    -4.6163   1.3813   3.7016   5.1972

          k = 0.6250 0.1250 0.8750 (   361 PWs)   bands (ev):

    -2.4541  -0.9165   2.0111   3.0798

          k = 1.1250-0.3750 1.3750 (   357 PWs)   bands (ev):

    -3.6728   0.1746   2.7165   4.0777

          k =-0.8750 0.1250 0.6250 (   361 PWs)   bands (ev):

    -2.4541  -0.9165   2.0111   3.0798

          k =-0.3750-0.3750 1.1250 (   361 PWs)   bands (ev):

    -2.9898  -0.6092   2.0670   4.1142

          k = 0.8750 0.1250-0.6250 (   361 PWs)   bands (ev):

    -2.4541  -0.9165   2.0111   3.0798

          k = 1.3750-0.3750-0.1250 (   357 PWs)   bands (ev):

    -3.6728   0.1746   2.7165   4.0777

          k = 0.3750-0.1250 0.6250 (   357 PWs)   bands (ev):

    -3.6728   0.1746   2.7165   4.0777

          k = 0.8750-0.6250 1.1250 (   353 PWs)   bands (ev):

    -5.1128   2.7525   4.6741   4.7364

          k =-0.6250-0.1250 0.3750 (   357 PWs)   bands (ev):

    -3.6728   0.1746   2.7165   4.0777

          k =-0.1250-0.6250 0.8750 (   361 PWs)   bands (ev):

    -2.4541  -0.9165   2.0111   3.0798

          k = 0.6250-0.1250-0.3750 (   357 PWs)   bands (ev):

    -3.6728   0.1746   2.7165   4.0777

          k = 1.1250-0.6250 0.1250 (   361 PWs)   bands (ev):

    -2.4541  -0.9165   2.0111   3.0798

          k =-0.1250 0.8750-0.1250 (   358 PWs)   bands (ev):

    -2.6196  -0.8200   2.6156   3.3371

          k = 0.3750 0.3750 0.3750 (   353 PWs)   bands (ev):

    -4.1864   0.0992   4.8916   4.8916

          k = 0.1250 0.8750 0.1250 (   358 PWs)   bands (ev):

    -2.6196  -0.8200   2.6156   3.3371

          k = 0.6250 0.3750 0.6250 (   361 PWs)   bands (ev):

    -3.4840  -0.6865   3.7188   4.4292

          k = 0.3750-0.3750 0.3750 (   353 PWs)   bands (ev):

    -4.1864   0.0992   4.8916   4.8916

          k = 0.8750-0.8750 0.8750 (   338 PWs)   bands (ev):

    -5.6381   4.3699   5.6785   5.6785

          k = 0.3750 0.3750 1.1250 (   361 PWs)   bands (ev):

    -2.9898  -0.6092   2.0670   4.1142

          k = 0.8750-0.1250 1.6250 (   361 PWs)   bands (ev):

    -2.4541  -0.9165   2.0111   3.0798

          k = 1.1250 0.3750-0.3750 (   361 PWs)   bands (ev):

    -2.9898  -0.6092   2.0670   4.1142

          k = 1.6250-0.1250 0.1250 (   353 PWs)   bands (ev):

    -5.1128   2.7525   4.6741   4.7364

     highest occupied level (ev):     5.6785

     Writing output data file silicon.10.3410.save

                                                                                

     bravais-lattice index     =            2
     lattice parameter (alat)  =      10.3410  a.u.
     unit-cell volume          =     276.4570 (a.u.)^3
     number of atoms/cell      =            2
     number of atomic types    =            1
     kinetic-energy cut-off    =      18.0000  Ry
     charge density cut-off    =      72.0000  Ry
     convergence threshold     =      1.0E-12
     beta                      =       0.7000
     number of iterations used =            4
     Exchange-correlation      = SLA  PW   PBE  PBE ( 1  4  3  4 0 0)


     celldm(1)=   10.34100  celldm(2)=    0.00000  celldm(3)=    0.00000
     celldm(4)=    0.00000  celldm(5)=    0.00000  celldm(6)=    0.00000

     crystal axes: (cart. coord. in units of alat)
               a(1) = ( -0.5000  0.0000  0.5000 )  
               a(2) = (  0.0000  0.5000  0.5000 )  
               a(3) = ( -0.5000  0.5000  0.0000 )  

     reciprocal axes: (cart. coord. in units 2 pi/alat)
               b(1) = ( -1.0000 -1.0000  1.0000 )  
               b(2) = (  1.0000  1.0000  1.0000 )  
               b(3) = ( -1.0000  1.0000 -1.0000 )  


     Atoms inside the unit cell: 

     Cartesian axes

     site n.  atom      mass           positions (alat units)
        1     Si  28.0860   tau(    1) = (    0.00000    0.00000    0.00000  )
        2     Si  28.0860   tau(    2) = (    0.25000    0.25000    0.25000  )

     Computing dynamical matrix for 
                    q = (   0.5000000  -0.5000000   0.5000000 )

     13 Sym.Ops. (with q -> -q+G )


     G cutoff =  195.0284  (    710 G-vectors)     FFT grid: ( 20, 20, 20)
     number of k points=    60

     PseudoPot. # 1 for Si read from file:
     /home/max/quantum_espresso/qe-6.1/pseudo/si_pbe_v1.uspp.F.UPF.txt
     MD5 check sum: a056efeee980c13900f22a371efd63c1
     Pseudo is Ultrasoft + core correction, Zval =  4.0
     Generated by new atomic code, or converted to UPF format
     Using radial grid of  899 points,  6 beta functions with: 
                l(1) =   0
                l(2) =   0
                l(3) =   1
                l(4) =   1
                l(5) =   2
                l(6) =   2
     Q(r) pseudized with  8 coefficients,  rinner =    0.900   0.900   0.900
                                                       0.900   0.900


     Atomic displacements:
     There are   4 irreducible representations

     Representation     1      1 modes -  To be done

     Representation     2      1 modes -  To be done

     Representation     3      2 modes -  To be done

     Representation     4      2 modes -  To be done



     Alpha used in Ewald sum =   0.7000
     PHONON       :    15.42s CPU        16.41s WALL



     Representation #  1 mode #   1

     Self-consistent Calculation

      iter #   1 total cpu time :    16.5 secs   av.it.:   4.8
      thresh= 1.000E-02 alpha_mix =  0.700 |ddv_scf|^2 =  2.485E-05

      iter #   2 total cpu time :    16.8 secs   av.it.:   8.3
      thresh= 4.985E-04 alpha_mix =  0.700 |ddv_scf|^2 =  2.213E-05

      iter #   3 total cpu time :    17.0 secs   av.it.:   7.5
      thresh= 4.704E-04 alpha_mix =  0.700 |ddv_scf|^2 =  4.351E-08

      iter #   4 total cpu time :    17.1 secs   av.it.:   7.4
      thresh= 2.086E-05 alpha_mix =  0.700 |ddv_scf|^2 =  1.329E-10

      iter #   5 total cpu time :    17.2 secs   av.it.:   7.9
      thresh= 1.153E-06 alpha_mix =  0.700 |ddv_scf|^2 =  3.568E-12

      iter #   6 total cpu time :    17.4 secs   av.it.:   7.9
      thresh= 1.889E-07 alpha_mix =  0.700 |ddv_scf|^2 =  4.313E-14

     End of self-consistent calculation

     Convergence has been achieved 


     Representation #  2 mode #   2

     Self-consistent Calculation

      iter #   1 total cpu time :    17.5 secs   av.it.:   5.6
      thresh= 1.000E-02 alpha_mix =  0.700 |ddv_scf|^2 =  3.452E-04

      iter #   2 total cpu time :    17.6 secs   av.it.:   8.3
      thresh= 1.858E-03 alpha_mix =  0.700 |ddv_scf|^2 =  1.064E-03

      iter #   3 total cpu time :    17.8 secs   av.it.:   7.1
      thresh= 3.262E-03 alpha_mix =  0.700 |ddv_scf|^2 =  1.303E-07

      iter #   4 total cpu time :    17.9 secs   av.it.:   8.1
      thresh= 3.610E-05 alpha_mix =  0.700 |ddv_scf|^2 =  8.373E-09

      iter #   5 total cpu time :    18.1 secs   av.it.:   8.5
      thresh= 9.151E-06 alpha_mix =  0.700 |ddv_scf|^2 =  1.345E-10

      iter #   6 total cpu time :    18.2 secs   av.it.:   8.2
      thresh= 1.160E-06 alpha_mix =  0.700 |ddv_scf|^2 =  2.492E-12

      iter #   7 total cpu time :    18.3 secs   av.it.:   7.9
      thresh= 1.579E-07 alpha_mix =  0.700 |ddv_scf|^2 =  4.866E-15

     End of self-consistent calculation

     Convergence has been achieved 


     Representation #  3 modes #   3  4

     Self-consistent Calculation

      iter #   1 total cpu time :    18.6 secs   av.it.:   4.7
      thresh= 1.000E-02 alpha_mix =  0.700 |ddv_scf|^2 =  3.323E-07

      iter #   2 total cpu time :    19.0 secs   av.it.:   9.0
      thresh= 5.764E-05 alpha_mix =  0.700 |ddv_scf|^2 =  2.813E-08

      iter #   3 total cpu time :    19.3 secs   av.it.:   8.3
      thresh= 1.677E-05 alpha_mix =  0.700 |ddv_scf|^2 =  5.014E-10

      iter #   4 total cpu time :    19.6 secs   av.it.:   8.9
      thresh= 2.239E-06 alpha_mix =  0.700 |ddv_scf|^2 =  6.204E-12

      iter #   5 total cpu time :    19.9 secs   av.it.:   8.7
      thresh= 2.491E-07 alpha_mix =  0.700 |ddv_scf|^2 =  3.092E-14

     End of self-consistent calculation

     Convergence has been achieved 


     Representation #  4 modes #   5  6

     Self-consistent Calculation

      iter #   1 total cpu time :    20.1 secs   av.it.:   5.0
      thresh= 1.000E-02 alpha_mix =  0.700 |ddv_scf|^2 =  9.858E-07

      iter #   2 total cpu time :    20.4 secs   av.it.:   9.4
      thresh= 9.929E-05 alpha_mix =  0.700 |ddv_scf|^2 =  7.747E-08

      iter #   3 total cpu time :    20.8 secs   av.it.:   9.3
      thresh= 2.783E-05 alpha_mix =  0.700 |ddv_scf|^2 =  5.012E-09

      iter #   4 total cpu time :    21.1 secs   av.it.:   8.5
      thresh= 7.080E-06 alpha_mix =  0.700 |ddv_scf|^2 =  6.440E-12

      iter #   5 total cpu time :    21.4 secs   av.it.:   8.8
      thresh= 2.538E-07 alpha_mix =  0.700 |ddv_scf|^2 =  2.330E-14

     End of self-consistent calculation

     Convergence has been achieved 

     Number of q in the star =    4
     List of q in the star:
          1   0.500000000  -0.500000000   0.500000000
          2   0.500000000   0.500000000   0.500000000
          3  -0.500000000   0.500000000   0.500000000
          4   0.500000000   0.500000000  -0.500000000

     Diagonalizing the dynamical matrix

     q = (    0.500000000  -0.500000000   0.500000000 ) 

 **************************************************************************
     freq (    1) =       4.776452 [THz] =     159.325302 [cm-1]
     freq (    2) =       4.776452 [THz] =     159.325302 [cm-1]
     freq (    3) =      11.809651 [THz] =     393.927563 [cm-1]
     freq (    4) =      12.139264 [THz] =     404.922253 [cm-1]
     freq (    5) =      14.668551 [THz] =     489.290202 [cm-1]
     freq (    6) =      14.668551 [THz] =     489.290202 [cm-1]
 **************************************************************************

     Calculation of q =    0.0000000   0.5000000   0.0000000

   Info: using nr1, nr2, nr3 values from input

   Info: using nr1, nr2, nr3 values from input

     Parallelization info
     --------------------
     sticks:   dense  smooth     PW     G-vecs:    dense   smooth      PW
     Min          64      64     27                  709      709     175
     Max          67      67     28                  710      710     176
     Sum         265     265    109                 2837     2837     701



     bravais-lattice index     =            2
     lattice parameter (alat)  =      10.3410  a.u.
     unit-cell volume          =     276.4570 (a.u.)^3
     number of atoms/cell      =            2
     number of atomic types    =            1
     number of electrons       =         8.00
     number of Kohn-Sham states=            4
     kinetic-energy cutoff     =      18.0000  Ry
     charge density cutoff     =      72.0000  Ry
     Exchange-correlation      = SLA  PW   PBE  PBE ( 1  4  3  4 0 0)

     celldm(1)=  10.341000  celldm(2)=   0.000000  celldm(3)=   0.000000
     celldm(4)=   0.000000  celldm(5)=   0.000000  celldm(6)=   0.000000

     crystal axes: (cart. coord. in units of alat)
               a(1) = (  -0.500000   0.000000   0.500000 )  
               a(2) = (   0.000000   0.500000   0.500000 )  
               a(3) = (  -0.500000   0.500000   0.000000 )  

     reciprocal axes: (cart. coord. in units 2 pi/alat)
               b(1) = ( -1.000000 -1.000000  1.000000 )  
               b(2) = (  1.000000  1.000000  1.000000 )  
               b(3) = ( -1.000000  1.000000 -1.000000 )  


     PseudoPot. # 1 for Si read from file:
     /home/max/quantum_espresso/qe-6.1/pseudo/si_pbe_v1.uspp.F.UPF.txt
     MD5 check sum: a056efeee980c13900f22a371efd63c1
     Pseudo is Ultrasoft + core correction, Zval =  4.0
     Generated by new atomic code, or converted to UPF format
     Using radial grid of  899 points,  6 beta functions with: 
                l(1) =   0
                l(2) =   0
                l(3) =   1
                l(4) =   1
                l(5) =   2
                l(6) =   2
     Q(r) pseudized with  8 coefficients,  rinner =    0.900   0.900   0.900
                                                       0.900   0.900

     atomic species   valence    mass     pseudopotential
        Si             4.00    28.08600     Si( 1.00)

     48 Sym. Ops., with inversion, found



   Cartesian axes

     site n.     atom                  positions (alat units)
         1           Si  tau(   1) = (   0.0000000   0.0000000   0.0000000  )
         2           Si  tau(   2) = (   0.2500000   0.2500000   0.2500000  )

     number of k points=    80
                       cart. coord. in units 2pi/alat
        k(    1) = (  -0.1250000   0.1250000   0.1250000), wk =   0.0312500
        k(    2) = (  -0.1250000   0.6250000   0.1250000), wk =   0.0000000
        k(    3) = (  -0.3750000   0.3750000  -0.1250000), wk =   0.0625000
        k(    4) = (  -0.3750000   0.8750000  -0.1250000), wk =   0.0000000
        k(    5) = (   0.3750000  -0.3750000   0.6250000), wk =   0.0625000
        k(    6) = (   0.3750000   0.1250000   0.6250000), wk =   0.0000000
        k(    7) = (   0.1250000  -0.1250000   0.3750000), wk =   0.0625000
        k(    8) = (   0.1250000   0.3750000   0.3750000), wk =   0.0000000
        k(    9) = (  -0.1250000   0.6250000   0.1250000), wk =   0.0312500
        k(   10) = (  -0.1250000   1.1250000   0.1250000), wk =   0.0000000
        k(   11) = (   0.6250000  -0.1250000   0.8750000), wk =   0.0625000
        k(   12) = (   0.6250000   0.3750000   0.8750000), wk =   0.0000000
        k(   13) = (   0.3750000   0.1250000   0.6250000), wk =   0.0625000
        k(   14) = (   0.3750000   0.6250000   0.6250000), wk =   0.0000000
        k(   15) = (  -0.1250000  -0.8750000   0.1250000), wk =   0.0312500
        k(   16) = (  -0.1250000  -0.3750000   0.1250000), wk =   0.0000000
        k(   17) = (  -0.3750000   0.3750000   0.3750000), wk =   0.0312500
        k(   18) = (  -0.3750000   0.8750000   0.3750000), wk =   0.0000000
        k(   19) = (   0.3750000  -0.3750000   1.1250000), wk =   0.0625000
        k(   20) = (   0.3750000   0.1250000   1.1250000), wk =   0.0000000
        k(   21) = (  -0.1250000  -0.1250000   0.1250000), wk =   0.0312500
        k(   22) = (  -0.1250000   0.3750000   0.1250000), wk =   0.0000000
        k(   23) = (   0.1250000  -0.3750000   0.3750000), wk =   0.0625000
        k(   24) = (   0.1250000   0.1250000   0.3750000), wk =   0.0000000
        k(   25) = (   0.3750000  -0.1250000   0.3750000), wk =   0.0312500
        k(   26) = (   0.3750000   0.3750000   0.3750000), wk =   0.0000000
        k(   27) = (   0.3750000   0.1250000   0.3750000), wk =   0.0312500
        k(   28) = (   0.3750000   0.6250000   0.3750000), wk =   0.0000000
        k(   29) = (  -0.6250000   0.3750000  -0.3750000), wk =   0.0625000
        k(   30) = (  -0.6250000   0.8750000  -0.3750000), wk =   0.0000000
        k(   31) = (  -0.3750000   0.6250000  -0.3750000), wk =   0.0312500
        k(   32) = (  -0.3750000   1.1250000  -0.3750000), wk =   0.0000000
        k(   33) = (  -0.3750000  -0.6250000  -0.3750000), wk =   0.0312500
        k(   34) = (  -0.3750000  -0.1250000  -0.3750000), wk =   0.0000000
        k(   35) = (  -0.3750000   0.1250000  -0.1250000), wk =   0.0625000
        k(   36) = (  -0.3750000   0.6250000  -0.1250000), wk =   0.0000000
        k(   37) = (  -0.1250000   0.3750000  -0.1250000), wk =   0.0312500
        k(   38) = (  -0.1250000   0.8750000  -0.1250000), wk =   0.0000000
        k(   39) = (  -0.1250000  -0.3750000  -0.1250000), wk =   0.0312500
        k(   40) = (  -0.1250000   0.1250000  -0.1250000), wk =   0.0000000
        k(   41) = (  -0.1250000  -0.6250000   0.1250000), wk =   0.0312500
        k(   42) = (  -0.1250000  -0.1250000   0.1250000), wk =   0.0000000
        k(   43) = (   0.6250000  -0.1250000  -0.1250000), wk =   0.0625000
        k(   44) = (   0.6250000   0.3750000  -0.1250000), wk =   0.0000000
        k(   45) = (   0.6250000   0.1250000   0.1250000), wk =   0.0625000
        k(   46) = (   0.6250000   0.6250000   0.1250000), wk =   0.0000000
        k(   47) = (  -0.8750000   0.1250000  -0.6250000), wk =   0.0625000
        k(   48) = (  -0.8750000   0.6250000  -0.6250000), wk =   0.0000000
        k(   49) = (  -0.1250000   0.6250000  -0.8750000), wk =   0.0625000
        k(   50) = (  -0.1250000   1.1250000  -0.8750000), wk =   0.0000000
        k(   51) = (  -0.1250000   0.8750000  -0.6250000), wk =   0.0625000
        k(   52) = (  -0.1250000   1.3750000  -0.6250000), wk =   0.0000000
        k(   53) = (  -0.1250000  -0.8750000  -0.6250000), wk =   0.0625000
        k(   54) = (  -0.1250000  -0.3750000  -0.6250000), wk =   0.0000000
        k(   55) = (   0.8750000  -0.6250000   0.1250000), wk =   0.0625000
        k(   56) = (   0.8750000  -0.1250000   0.1250000), wk =   0.0000000
        k(   57) = (  -0.6250000  -0.1250000  -0.3750000), wk =   0.0625000
        k(   58) = (  -0.6250000   0.3750000  -0.3750000), wk =   0.0000000
        k(   59) = (   0.1250000   0.3750000  -0.6250000), wk =   0.0625000
        k(   60) = (   0.1250000   0.8750000  -0.6250000), wk =   0.0000000
        k(   61) = (   0.1250000   0.6250000  -0.3750000), wk =   0.0625000
        k(   62) = (   0.1250000   1.1250000  -0.3750000), wk =   0.0000000
        k(   63) = (   0.1250000  -0.6250000  -0.3750000), wk =   0.0625000
        k(   64) = (   0.1250000  -0.1250000  -0.3750000), wk =   0.0000000
        k(   65) = (   0.6250000  -0.3750000  -0.1250000), wk =   0.0625000
        k(   66) = (   0.6250000   0.1250000  -0.1250000), wk =   0.0000000
        k(   67) = (  -0.1250000   0.8750000   0.1250000), wk =   0.0312500
        k(   68) = (  -0.1250000   1.3750000   0.1250000), wk =   0.0000000
        k(   69) = (  -0.8750000  -0.1250000  -0.1250000), wk =   0.0625000
        k(   70) = (  -0.8750000   0.3750000  -0.1250000), wk =   0.0000000
        k(   71) = (  -0.8750000   0.1250000   0.1250000), wk =   0.0625000
        k(   72) = (  -0.8750000   0.6250000   0.1250000), wk =   0.0000000
        k(   73) = (  -0.3750000  -0.3750000   0.3750000), wk =   0.0312500
        k(   74) = (  -0.3750000   0.1250000   0.3750000), wk =   0.0000000
        k(   75) = (  -1.1250000   0.3750000  -0.3750000), wk =   0.0625000
        k(   76) = (  -1.1250000   0.8750000  -0.3750000), wk =   0.0000000
        k(   77) = (  -0.3750000   1.1250000  -0.3750000), wk =   0.0312500
        k(   78) = (  -0.3750000   1.6250000  -0.3750000), wk =   0.0000000
        k(   79) = (  -0.3750000  -1.1250000  -0.3750000), wk =   0.0312500
        k(   80) = (  -0.3750000  -0.6250000  -0.3750000), wk =   0.0000000

     Dense  grid:     2837 G-vectors     FFT dimensions: (  20,  20,  20)

     Estimated max dynamical RAM per process >       0.33MB

     Estimated total allocated dynamical RAM >       1.32MB

     Check: negative/imaginary core charge=   -0.000006    0.000000

     The potential is recalculated from file :
     ./_ph0/silicon.10.3410.save/charge-density.dat

     Starting wfc are    8 atomic wfcs

     Band Structure Calculation
     Davidson diagonalization with overlap

     ethr =  1.25E-10,  avg # of iterations = 11.7

     total cpu time spent up to now is        2.1 secs

     End of band structure calculation

          k =-0.1250 0.1250 0.1250 (   338 PWs)   bands (ev):

    -5.6381   4.3699   5.6785   5.6785

          k =-0.1250 0.6250 0.1250 (   351 PWs)   bands (ev):

    -4.0856   1.0410   3.3554   3.8027

          k =-0.3750 0.3750-0.1250 (   352 PWs)   bands (ev):

    -4.6163   1.3813   3.7016   5.1972

          k =-0.3750 0.8750-0.1250 (   361 PWs)   bands (ev):

    -2.4541  -0.9165   2.0111   3.0798

          k = 0.3750-0.3750 0.6250 (   361 PWs)   bands (ev):

    -3.4840  -0.6865   3.7188   4.4292

          k = 0.3750 0.1250 0.6250 (   357 PWs)   bands (ev):

    -3.6728   0.1746   2.7165   4.0777

          k = 0.1250-0.1250 0.3750 (   353 PWs)   bands (ev):

    -5.1128   2.7525   4.6741   4.7364

          k = 0.1250 0.3750 0.3750 (   352 PWs)   bands (ev):

    -4.6163   1.3813   3.7016   5.1972

          k =-0.1250 0.6250 0.1250 (   351 PWs)   bands (ev):

    -4.0856   1.0410   3.3554   3.8027

          k =-0.1250 1.1250 0.1250 (   358 PWs)   bands (ev):

    -2.6196  -0.8200   2.6156   3.3371

          k = 0.6250-0.1250 0.8750 (   361 PWs)   bands (ev):

    -2.4541  -0.9165   2.0111   3.0798

          k = 0.6250 0.3750 0.8750 (   357 PWs)   bands (ev):

    -3.6728   0.1746   2.7165   4.0777

          k = 0.3750 0.1250 0.6250 (   357 PWs)   bands (ev):

    -3.6728   0.1746   2.7165   4.0777

          k = 0.3750 0.6250 0.6250 (   361 PWs)   bands (ev):

    -3.4840  -0.6865   3.7188   4.4292

          k =-0.1250-0.8750 0.1250 (   358 PWs)   bands (ev):

    -2.6196  -0.8200   2.6156   3.3371

          k =-0.1250-0.3750 0.1250 (   353 PWs)   bands (ev):

    -5.1128   2.7525   4.6741   4.7364

          k =-0.3750 0.3750 0.3750 (   353 PWs)   bands (ev):

    -4.1864   0.0992   4.8916   4.8916

          k =-0.3750 0.8750 0.3750 (   361 PWs)   bands (ev):

    -2.9898  -0.6092   2.0670   4.1142

          k = 0.3750-0.3750 1.1250 (   361 PWs)   bands (ev):

    -2.9898  -0.6092   2.0670   4.1142

          k = 0.3750 0.1250 1.1250 (   361 PWs)   bands (ev):

    -2.4541  -0.9165   2.0111   3.0798

          k =-0.1250-0.1250 0.1250 (   338 PWs)   bands (ev):

    -5.6381   4.3699   5.6785   5.6785

          k =-0.1250 0.3750 0.1250 (   353 PWs)   bands (ev):

    -5.1128   2.7525   4.6741   4.7364

          k = 0.1250-0.3750 0.3750 (   352 PWs)   bands (ev):

    -4.6163   1.3813   3.7016   5.1972

          k = 0.1250 0.1250 0.3750 (   353 PWs)   bands (ev):

    -5.1128   2.7525   4.6741   4.7364

          k = 0.3750-0.1250 0.3750 (   352 PWs)   bands (ev):

    -4.6163   1.3813   3.7016   5.1972

          k = 0.3750 0.3750 0.3750 (   353 PWs)   bands (ev):

    -4.1864   0.0992   4.8916   4.8916

          k = 0.3750 0.1250 0.3750 (   352 PWs)   bands (ev):

    -4.6163   1.3813   3.7016   5.1972

          k = 0.3750 0.6250 0.3750 (   361 PWs)   bands (ev):

    -3.4840  -0.6865   3.7188   4.4292

          k =-0.6250 0.3750-0.3750 (   361 PWs)   bands (ev):

    -3.4840  -0.6865   3.7188   4.4292

          k =-0.6250 0.8750-0.3750 (   357 PWs)   bands (ev):

    -3.6728   0.1746   2.7165   4.0777

          k =-0.3750 0.6250-0.3750 (   361 PWs)   bands (ev):

    -3.4840  -0.6865   3.7188   4.4292

          k =-0.3750 1.1250-0.3750 (   361 PWs)   bands (ev):

    -2.9898  -0.6092   2.0670   4.1142

          k =-0.3750-0.6250-0.3750 (   361 PWs)   bands (ev):

    -3.4840  -0.6865   3.7188   4.4292

          k =-0.3750-0.1250-0.3750 (   352 PWs)   bands (ev):

    -4.6163   1.3813   3.7016   5.1972

          k =-0.3750 0.1250-0.1250 (   353 PWs)   bands (ev):

    -5.1128   2.7525   4.6741   4.7364

          k =-0.3750 0.6250-0.1250 (   357 PWs)   bands (ev):

    -3.6728   0.1746   2.7165   4.0777

          k =-0.1250 0.3750-0.1250 (   353 PWs)   bands (ev):

    -5.1128   2.7525   4.6741   4.7364

          k =-0.1250 0.8750-0.1250 (   358 PWs)   bands (ev):

    -2.6196  -0.8200   2.6156   3.3371

          k =-0.1250-0.3750-0.1250 (   353 PWs)   bands (ev):

    -5.1128   2.7525   4.6741   4.7364

          k =-0.1250 0.1250-0.1250 (   338 PWs)   bands (ev):

    -5.6381   4.3699   5.6785   5.6785

          k =-0.1250-0.6250 0.1250 (   351 PWs)   bands (ev):

    -4.0856   1.0410   3.3554   3.8027

          k =-0.1250-0.1250 0.1250 (   338 PWs)   bands (ev):

    -5.6381   4.3699   5.6785   5.6785

          k = 0.6250-0.1250-0.1250 (   351 PWs)   bands (ev):

    -4.0856   1.0410   3.3554   3.8027

          k = 0.6250 0.3750-0.1250 (   357 PWs)   bands (ev):

    -3.6728   0.1746   2.7165   4.0777

          k = 0.6250 0.1250 0.1250 (   351 PWs)   bands (ev):

    -4.0856   1.0410   3.3554   3.8027

          k = 0.6250 0.6250 0.1250 (   361 PWs)   bands (ev):

    -2.9898  -0.6092   2.0670   4.1142

          k =-0.8750 0.1250-0.6250 (   361 PWs)   bands (ev):

    -2.4541  -0.9165   2.0111   3.0798

          k =-0.8750 0.6250-0.6250 (   352 PWs)   bands (ev):

    -4.6163   1.3813   3.7016   5.1972

          k =-0.1250 0.6250-0.8750 (   361 PWs)   bands (ev):

    -2.4541  -0.9165   2.0111   3.0798

          k =-0.1250 1.1250-0.8750 (   358 PWs)   bands (ev):

    -2.6196  -0.8200   2.6156   3.3371

          k =-0.1250 0.8750-0.6250 (   361 PWs)   bands (ev):

    -2.4541  -0.9165   2.0111   3.0798

          k =-0.1250 1.3750-0.6250 (   361 PWs)   bands (ev):

    -2.9898  -0.6092   2.0670   4.1142

          k =-0.1250-0.8750-0.6250 (   361 PWs)   bands (ev):

    -2.4541  -0.9165   2.0111   3.0798

          k =-0.1250-0.3750-0.6250 (   357 PWs)   bands (ev):

    -3.6728   0.1746   2.7165   4.0777

          k = 0.8750-0.6250 0.1250 (   361 PWs)   bands (ev):

    -2.4541  -0.9165   2.0111   3.0798

          k = 0.8750-0.1250 0.1250 (   358 PWs)   bands (ev):

    -2.6196  -0.8200   2.6156   3.3371

          k =-0.6250-0.1250-0.3750 (   357 PWs)   bands (ev):

    -3.6728   0.1746   2.7165   4.0777

          k =-0.6250 0.3750-0.3750 (   361 PWs)   bands (ev):

    -3.4840  -0.6865   3.7188   4.4292

          k = 0.1250 0.3750-0.6250 (   357 PWs)   bands (ev):

    -3.6728   0.1746   2.7165   4.0777

          k = 0.1250 0.8750-0.6250 (   361 PWs)   bands (ev):

    -2.4541  -0.9165   2.0111   3.0798

          k = 0.1250 0.6250-0.3750 (   357 PWs)   bands (ev):

    -3.6728   0.1746   2.7165   4.0777

          k = 0.1250 1.1250-0.3750 (   361 PWs)   bands (ev):

    -2.4541  -0.9165   2.0111   3.0798

          k = 0.1250-0.6250-0.3750 (   357 PWs)   bands (ev):

    -3.6728   0.1746   2.7165   4.0777

          k = 0.1250-0.1250-0.3750 (   353 PWs)   bands (ev):

    -5.1128   2.7525   4.6741   4.7364

          k = 0.6250-0.3750-0.1250 (   357 PWs)   bands (ev):

    -3.6728   0.1746   2.7165   4.0777

          k = 0.6250 0.1250-0.1250 (   351 PWs)   bands (ev):

    -4.0856   1.0410   3.3554   3.8027

          k =-0.1250 0.8750 0.1250 (   358 PWs)   bands (ev):

    -2.6196  -0.8200   2.6156   3.3371

          k =-0.1250 1.3750 0.1250 (   351 PWs)   bands (ev):

    -4.0856   1.0410   3.3554   3.8027

          k =-0.8750-0.1250-0.1250 (   358 PWs)   bands (ev):

    -2.6196  -0.8200   2.6156   3.3371

          k =-0.8750 0.3750-0.1250 (   361 PWs)   bands (ev):

    -2.4541  -0.9165   2.0111   3.0798

          k =-0.8750 0.1250 0.1250 (   358 PWs)   bands (ev):

    -2.6196  -0.8200   2.6156   3.3371

          k =-0.8750 0.6250 0.1250 (   361 PWs)   bands (ev):

    -2.4541  -0.9165   2.0111   3.0798

          k =-0.3750-0.3750 0.3750 (   353 PWs)   bands (ev):

    -4.1864   0.0992   4.8916   4.8916

          k =-0.3750 0.1250 0.3750 (   352 PWs)   bands (ev):

    -4.6163   1.3813   3.7016   5.1972

          k =-1.1250 0.3750-0.3750 (   361 PWs)   bands (ev):

    -2.9898  -0.6092   2.0670   4.1142

          k =-1.1250 0.8750-0.3750 (   351 PWs)   bands (ev):

    -4.0856   1.0410   3.3554   3.8027

          k =-0.3750 1.1250-0.3750 (   361 PWs)   bands (ev):

    -2.9898  -0.6092   2.0670   4.1142

          k =-0.3750 1.6250-0.3750 (   353 PWs)   bands (ev):

    -4.1864   0.0992   4.8916   4.8916

          k =-0.3750-1.1250-0.3750 (   361 PWs)   bands (ev):

    -2.9898  -0.6092   2.0670   4.1142

          k =-0.3750-0.6250-0.3750 (   361 PWs)   bands (ev):

    -3.4840  -0.6865   3.7188   4.4292

     highest occupied level (ev):     5.6785

     Writing output data file silicon.10.3410.save

                                                                                

     bravais-lattice index     =            2
     lattice parameter (alat)  =      10.3410  a.u.
     unit-cell volume          =     276.4570 (a.u.)^3
     number of atoms/cell      =            2
     number of atomic types    =            1
     kinetic-energy cut-off    =      18.0000  Ry
     charge density cut-off    =      72.0000  Ry
     convergence threshold     =      1.0E-12
     beta                      =       0.7000
     number of iterations used =            4
     Exchange-correlation      = SLA  PW   PBE  PBE ( 1  4  3  4 0 0)


     celldm(1)=   10.34100  celldm(2)=    0.00000  celldm(3)=    0.00000
     celldm(4)=    0.00000  celldm(5)=    0.00000  celldm(6)=    0.00000

     crystal axes: (cart. coord. in units of alat)
               a(1) = ( -0.5000  0.0000  0.5000 )  
               a(2) = (  0.0000  0.5000  0.5000 )  
               a(3) = ( -0.5000  0.5000  0.0000 )  

     reciprocal axes: (cart. coord. in units 2 pi/alat)
               b(1) = ( -1.0000 -1.0000  1.0000 )  
               b(2) = (  1.0000  1.0000  1.0000 )  
               b(3) = ( -1.0000  1.0000 -1.0000 )  


     Atoms inside the unit cell: 

     Cartesian axes

     site n.  atom      mass           positions (alat units)
        1     Si  28.0860   tau(    1) = (    0.00000    0.00000    0.00000  )
        2     Si  28.0860   tau(    2) = (    0.25000    0.25000    0.25000  )

     Computing dynamical matrix for 
                    q = (   0.0000000   0.5000000   0.0000000 )

      8 Sym.Ops. (no q -> -q+G )


     G cutoff =  195.0284  (    710 G-vectors)     FFT grid: ( 20, 20, 20)
     number of k points=    80

     PseudoPot. # 1 for Si read from file:
     /home/max/quantum_espresso/qe-6.1/pseudo/si_pbe_v1.uspp.F.UPF.txt
     MD5 check sum: a056efeee980c13900f22a371efd63c1
     Pseudo is Ultrasoft + core correction, Zval =  4.0
     Generated by new atomic code, or converted to UPF format
     Using radial grid of  899 points,  6 beta functions with: 
                l(1) =   0
                l(2) =   0
                l(3) =   1
                l(4) =   1
                l(5) =   2
                l(6) =   2
     Q(r) pseudized with  8 coefficients,  rinner =    0.900   0.900   0.900
                                                       0.900   0.900

     Mode symmetry, C_4v (4mm)  point group:


     Atomic displacements:
     There are   4 irreducible representations

     Representation     1      1 modes -A_1  G_1 D_1  To be done

     Representation     2      1 modes -B_2  G_4 D_2'  To be done

     Representation     3      2 modes -E    G_5 D_5  To be done

     Representation     4      2 modes -E    G_5 D_5  To be done



     Alpha used in Ewald sum =   0.7000
     PHONON       :    20.93s CPU        22.31s WALL



     Representation #  1 mode #   1

     Self-consistent Calculation

      iter #   1 total cpu time :    22.5 secs   av.it.:   5.8
      thresh= 1.000E-02 alpha_mix =  0.700 |ddv_scf|^2 =  2.967E-03

      iter #   2 total cpu time :    22.8 secs   av.it.:   7.7
      thresh= 5.447E-03 alpha_mix =  0.700 |ddv_scf|^2 =  3.906E-02

      iter #   3 total cpu time :    23.0 secs   av.it.:   6.7
      thresh= 1.000E-02 alpha_mix =  0.700 |ddv_scf|^2 =  1.481E-07

      iter #   4 total cpu time :    23.1 secs   av.it.:   8.1
      thresh= 3.848E-05 alpha_mix =  0.700 |ddv_scf|^2 =  1.424E-08

      iter #   5 total cpu time :    23.3 secs   av.it.:   7.7
      thresh= 1.193E-05 alpha_mix =  0.700 |ddv_scf|^2 =  7.206E-10

      iter #   6 total cpu time :    23.5 secs   av.it.:   7.8
      thresh= 2.684E-06 alpha_mix =  0.700 |ddv_scf|^2 =  2.786E-12

      iter #   7 total cpu time :    23.7 secs   av.it.:   7.9
      thresh= 1.669E-07 alpha_mix =  0.700 |ddv_scf|^2 =  5.332E-13

     End of self-consistent calculation

     Convergence has been achieved 


     Representation #  2 mode #   2

     Self-consistent Calculation

      iter #   1 total cpu time :    23.8 secs   av.it.:   4.9
      thresh= 1.000E-02 alpha_mix =  0.700 |ddv_scf|^2 =  5.509E-06

      iter #   2 total cpu time :    24.0 secs   av.it.:   8.7
      thresh= 2.347E-04 alpha_mix =  0.700 |ddv_scf|^2 =  1.341E-06

      iter #   3 total cpu time :    24.2 secs   av.it.:   8.5
      thresh= 1.158E-04 alpha_mix =  0.700 |ddv_scf|^2 =  4.266E-08

      iter #   4 total cpu time :    24.4 secs   av.it.:   8.2
      thresh= 2.065E-05 alpha_mix =  0.700 |ddv_scf|^2 =  7.162E-10

      iter #   5 total cpu time :    24.6 secs   av.it.:   8.6
      thresh= 2.676E-06 alpha_mix =  0.700 |ddv_scf|^2 =  6.853E-12

      iter #   6 total cpu time :    24.9 secs   av.it.:   8.0
      thresh= 2.618E-07 alpha_mix =  0.700 |ddv_scf|^2 =  7.371E-14

     End of self-consistent calculation

     Convergence has been achieved 


     Representation #  3 modes #   3  4

     Self-consistent Calculation

      iter #   1 total cpu time :    25.2 secs   av.it.:   5.0
      thresh= 1.000E-02 alpha_mix =  0.700 |ddv_scf|^2 =  1.022E-06

      iter #   2 total cpu time :    25.6 secs   av.it.:   9.7
      thresh= 1.011E-04 alpha_mix =  0.700 |ddv_scf|^2 =  1.269E-07

      iter #   3 total cpu time :    26.0 secs   av.it.:   9.5
      thresh= 3.562E-05 alpha_mix =  0.700 |ddv_scf|^2 =  6.700E-09

      iter #   4 total cpu time :    26.4 secs   av.it.:   8.8
      thresh= 8.185E-06 alpha_mix =  0.700 |ddv_scf|^2 =  9.526E-12

      iter #   5 total cpu time :    26.9 secs   av.it.:   9.1
      thresh= 3.086E-07 alpha_mix =  0.700 |ddv_scf|^2 =  2.991E-13

     End of self-consistent calculation

     Convergence has been achieved 


     Representation #  4 modes #   5  6

     Self-consistent Calculation

      iter #   1 total cpu time :    27.2 secs   av.it.:   5.0
      thresh= 1.000E-02 alpha_mix =  0.700 |ddv_scf|^2 =  9.382E-07

      iter #   2 total cpu time :    27.6 secs   av.it.:   9.7
      thresh= 9.686E-05 alpha_mix =  0.700 |ddv_scf|^2 =  1.188E-07

      iter #   3 total cpu time :    28.0 secs   av.it.:   9.4
      thresh= 3.446E-05 alpha_mix =  0.700 |ddv_scf|^2 =  7.006E-09

      iter #   4 total cpu time :    28.4 secs   av.it.:   8.9
      thresh= 8.370E-06 alpha_mix =  0.700 |ddv_scf|^2 =  1.481E-11

      iter #   5 total cpu time :    28.9 secs   av.it.:   9.2
      thresh= 3.848E-07 alpha_mix =  0.700 |ddv_scf|^2 =  4.424E-14

     End of self-consistent calculation

     Convergence has been achieved 

     Number of q in the star =    6
     List of q in the star:
          1   0.000000000   0.500000000   0.000000000
          2   0.000000000  -0.500000000   0.000000000
          3   0.500000000   0.000000000   0.000000000
          4   0.000000000   0.000000000   0.500000000
          5   0.000000000   0.000000000  -0.500000000
          6  -0.500000000   0.000000000   0.000000000

     Diagonalizing the dynamical matrix

     q = (    0.000000000   0.500000000   0.000000000 ) 

 **************************************************************************
     freq (    1) =       4.297790 [THz] =     143.358830 [cm-1]
     freq (    2) =       4.297790 [THz] =     143.358830 [cm-1]
     freq (    3) =       7.151858 [THz] =     238.560321 [cm-1]
     freq (    4) =      14.044709 [THz] =     468.481053 [cm-1]
     freq (    5) =      14.044709 [THz] =     468.481053 [cm-1]
     freq (    6) =      14.672968 [THz] =     489.437525 [cm-1]
 **************************************************************************

     Mode symmetry, C_4v (4mm)  point group:

     freq (  1 -  2) =        143.4  [cm-1]   --> E    G_5 D_5       
     freq (  3 -  3) =        238.6  [cm-1]   --> A_1  G_1 D_1       
     freq (  4 -  5) =        468.5  [cm-1]   --> E    G_5 D_5       
     freq (  6 -  6) =        489.4  [cm-1]   --> B_2  G_4 D_2'      

     Calculation of q =    0.7500000  -0.2500000   0.7500000

   Info: using nr1, nr2, nr3 values from input

   Info: using nr1, nr2, nr3 values from input

     Parallelization info
     --------------------
     sticks:   dense  smooth     PW     G-vecs:    dense   smooth      PW
     Min          64      64     30                  709      709     216
     Max          67      67     31                  710      710     218
     Sum         265     265    121                 2837     2837     869



     bravais-lattice index     =            2
     lattice parameter (alat)  =      10.3410  a.u.
     unit-cell volume          =     276.4570 (a.u.)^3
     number of atoms/cell      =            2
     number of atomic types    =            1
     number of electrons       =         8.00
     number of Kohn-Sham states=            4
     kinetic-energy cutoff     =      18.0000  Ry
     charge density cutoff     =      72.0000  Ry
     Exchange-correlation      = SLA  PW   PBE  PBE ( 1  4  3  4 0 0)

     celldm(1)=  10.341000  celldm(2)=   0.000000  celldm(3)=   0.000000
     celldm(4)=   0.000000  celldm(5)=   0.000000  celldm(6)=   0.000000

     crystal axes: (cart. coord. in units of alat)
               a(1) = (  -0.500000   0.000000   0.500000 )  
               a(2) = (   0.000000   0.500000   0.500000 )  
               a(3) = (  -0.500000   0.500000   0.000000 )  

     reciprocal axes: (cart. coord. in units 2 pi/alat)
               b(1) = ( -1.000000 -1.000000  1.000000 )  
               b(2) = (  1.000000  1.000000  1.000000 )  
               b(3) = ( -1.000000  1.000000 -1.000000 )  


     PseudoPot. # 1 for Si read from file:
     /home/max/quantum_espresso/qe-6.1/pseudo/si_pbe_v1.uspp.F.UPF.txt
     MD5 check sum: a056efeee980c13900f22a371efd63c1
     Pseudo is Ultrasoft + core correction, Zval =  4.0
     Generated by new atomic code, or converted to UPF format
     Using radial grid of  899 points,  6 beta functions with: 
                l(1) =   0
                l(2) =   0
                l(3) =   1
                l(4) =   1
                l(5) =   2
                l(6) =   2
     Q(r) pseudized with  8 coefficients,  rinner =    0.900   0.900   0.900
                                                       0.900   0.900

     atomic species   valence    mass     pseudopotential
        Si             4.00    28.08600     Si( 1.00)

     48 Sym. Ops., with inversion, found



   Cartesian axes

     site n.     atom                  positions (alat units)
         1           Si  tau(   1) = (   0.0000000   0.0000000   0.0000000  )
         2           Si  tau(   2) = (   0.2500000   0.2500000   0.2500000  )

     number of k points=   288

     Number of k-points >= 100: set verbosity='high' to print them.

     Dense  grid:     2837 G-vectors     FFT dimensions: (  20,  20,  20)

     Estimated max dynamical RAM per process >       0.33MB

     Estimated total allocated dynamical RAM >       1.32MB

     Check: negative/imaginary core charge=   -0.000006    0.000000

     The potential is recalculated from file :
     ./_ph0/silicon.10.3410.save/charge-density.dat

     Starting wfc are    8 atomic wfcs

     Band Structure Calculation
     Davidson diagonalization with overlap

     ethr =  1.25E-10,  avg # of iterations = 11.6

     total cpu time spent up to now is        4.1 secs

     End of band structure calculation

     Number of k-points >= 100: set verbosity='high' to print the bands.

     highest occupied level (ev):     5.6785

     Writing output data file silicon.10.3410.save

                                                                                

     bravais-lattice index     =            2
     lattice parameter (alat)  =      10.3410  a.u.
     unit-cell volume          =     276.4570 (a.u.)^3
     number of atoms/cell      =            2
     number of atomic types    =            1
     kinetic-energy cut-off    =      18.0000  Ry
     charge density cut-off    =      72.0000  Ry
     convergence threshold     =      1.0E-12
     beta                      =       0.7000
     number of iterations used =            4
     Exchange-correlation      = SLA  PW   PBE  PBE ( 1  4  3  4 0 0)


     celldm(1)=   10.34100  celldm(2)=    0.00000  celldm(3)=    0.00000
     celldm(4)=    0.00000  celldm(5)=    0.00000  celldm(6)=    0.00000

     crystal axes: (cart. coord. in units of alat)
               a(1) = ( -0.5000  0.0000  0.5000 )  
               a(2) = (  0.0000  0.5000  0.5000 )  
               a(3) = ( -0.5000  0.5000  0.0000 )  

     reciprocal axes: (cart. coord. in units 2 pi/alat)
               b(1) = ( -1.0000 -1.0000  1.0000 )  
               b(2) = (  1.0000  1.0000  1.0000 )  
               b(3) = ( -1.0000  1.0000 -1.0000 )  


     Atoms inside the unit cell: 

     Cartesian axes

     site n.  atom      mass           positions (alat units)
        1     Si  28.0860   tau(    1) = (    0.00000    0.00000    0.00000  )
        2     Si  28.0860   tau(    2) = (    0.25000    0.25000    0.25000  )

     Computing dynamical matrix for 
                    q = (   0.7500000  -0.2500000   0.7500000 )

      2 Sym.Ops. (no q -> -q+G )


     G cutoff =  195.0284  (    710 G-vectors)     FFT grid: ( 20, 20, 20)
     number of k points=   288

     PseudoPot. # 1 for Si read from file:
     /home/max/quantum_espresso/qe-6.1/pseudo/si_pbe_v1.uspp.F.UPF.txt
     MD5 check sum: a056efeee980c13900f22a371efd63c1
     Pseudo is Ultrasoft + core correction, Zval =  4.0
     Generated by new atomic code, or converted to UPF format
     Using radial grid of  899 points,  6 beta functions with: 
                l(1) =   0
                l(2) =   0
                l(3) =   1
                l(4) =   1
                l(5) =   2
                l(6) =   2
     Q(r) pseudized with  8 coefficients,  rinner =    0.900   0.900   0.900
                                                       0.900   0.900

     Mode symmetry, C_s (m)     point group:


     Atomic displacements:
     There are   6 irreducible representations

     Representation     1      1 modes -A'  To be done

     Representation     2      1 modes -A'  To be done

     Representation     3      1 modes -A'  To be done

     Representation     4      1 modes -A'  To be done

     Representation     5      1 modes -A''  To be done

     Representation     6      1 modes -A''  To be done



     Alpha used in Ewald sum =   0.7000
     PHONON       :    29.68s CPU        31.67s WALL



     Representation #  1 mode #   1

     Self-consistent Calculation

      iter #   1 total cpu time :    32.2 secs   av.it.:   5.3
      thresh= 1.000E-02 alpha_mix =  0.700 |ddv_scf|^2 =  6.124E-05

      iter #   2 total cpu time :    33.0 secs   av.it.:   8.9
      thresh= 7.825E-04 alpha_mix =  0.700 |ddv_scf|^2 =  1.604E-04

      iter #   3 total cpu time :    33.6 secs   av.it.:   7.6
      thresh= 1.266E-03 alpha_mix =  0.700 |ddv_scf|^2 =  1.148E-06

      iter #   4 total cpu time :    34.2 secs   av.it.:   8.4
      thresh= 1.071E-04 alpha_mix =  0.700 |ddv_scf|^2 =  6.158E-08

      iter #   5 total cpu time :    35.0 secs   av.it.:   8.3
      thresh= 2.482E-05 alpha_mix =  0.700 |ddv_scf|^2 =  7.538E-09

      iter #   6 total cpu time :    35.6 secs   av.it.:   8.5
      thresh= 8.682E-06 alpha_mix =  0.700 |ddv_scf|^2 =  8.327E-11

      iter #   7 total cpu time :    36.3 secs   av.it.:   8.8
      thresh= 9.125E-07 alpha_mix =  0.700 |ddv_scf|^2 =  2.988E-12

      iter #   8 total cpu time :    37.1 secs   av.it.:   8.6
      thresh= 1.729E-07 alpha_mix =  0.700 |ddv_scf|^2 =  1.873E-13

     End of self-consistent calculation

     Convergence has been achieved 


     Representation #  2 mode #   2

     Self-consistent Calculation

      iter #   1 total cpu time :    37.6 secs   av.it.:   5.4
      thresh= 1.000E-02 alpha_mix =  0.700 |ddv_scf|^2 =  1.090E-04

      iter #   2 total cpu time :    38.3 secs   av.it.:   8.7
      thresh= 1.044E-03 alpha_mix =  0.700 |ddv_scf|^2 =  3.109E-04

      iter #   3 total cpu time :    39.0 secs   av.it.:   7.4
      thresh= 1.763E-03 alpha_mix =  0.700 |ddv_scf|^2 =  7.932E-07

      iter #   4 total cpu time :    39.7 secs   av.it.:   8.6
      thresh= 8.906E-05 alpha_mix =  0.700 |ddv_scf|^2 =  6.007E-08

      iter #   5 total cpu time :    40.3 secs   av.it.:   8.2
      thresh= 2.451E-05 alpha_mix =  0.700 |ddv_scf|^2 =  1.071E-08

      iter #   6 total cpu time :    41.1 secs   av.it.:   8.5
      thresh= 1.035E-05 alpha_mix =  0.700 |ddv_scf|^2 =  8.342E-11

      iter #   7 total cpu time :    41.7 secs   av.it.:   8.7
      thresh= 9.134E-07 alpha_mix =  0.700 |ddv_scf|^2 =  2.651E-12

      iter #   8 total cpu time :    42.4 secs   av.it.:   8.7
      thresh= 1.628E-07 alpha_mix =  0.700 |ddv_scf|^2 =  6.585E-13

     End of self-consistent calculation

     Convergence has been achieved 


     Representation #  3 mode #   3

     Self-consistent Calculation

      iter #   1 total cpu time :    43.1 secs   av.it.:   5.3
      thresh= 1.000E-02 alpha_mix =  0.700 |ddv_scf|^2 =  8.555E-05

      iter #   2 total cpu time :    43.7 secs   av.it.:   8.7
      thresh= 9.249E-04 alpha_mix =  0.700 |ddv_scf|^2 =  2.281E-04

      iter #   3 total cpu time :    44.3 secs   av.it.:   7.4
      thresh= 1.510E-03 alpha_mix =  0.700 |ddv_scf|^2 =  1.351E-06

      iter #   4 total cpu time :    45.1 secs   av.it.:   8.2
      thresh= 1.163E-04 alpha_mix =  0.700 |ddv_scf|^2 =  6.172E-08

      iter #   5 total cpu time :    45.7 secs   av.it.:   8.4
      thresh= 2.484E-05 alpha_mix =  0.700 |ddv_scf|^2 =  1.101E-08

      iter #   6 total cpu time :    46.3 secs   av.it.:   8.4
      thresh= 1.049E-05 alpha_mix =  0.700 |ddv_scf|^2 =  4.790E-11

      iter #   7 total cpu time :    47.1 secs   av.it.:   8.7
      thresh= 6.921E-07 alpha_mix =  0.700 |ddv_scf|^2 =  1.728E-12

      iter #   8 total cpu time :    47.8 secs   av.it.:   8.8
      thresh= 1.315E-07 alpha_mix =  0.700 |ddv_scf|^2 =  3.052E-13

     End of self-consistent calculation

     Convergence has been achieved 


     Representation #  4 mode #   4

     Self-consistent Calculation

      iter #   1 total cpu time :    48.3 secs   av.it.:   5.2
      thresh= 1.000E-02 alpha_mix =  0.700 |ddv_scf|^2 =  3.778E-05

      iter #   2 total cpu time :    49.1 secs   av.it.:   8.9
[...]
        k(   59) = (  -0.8750000   0.1250000  -0.1250000), wk =   0.0625000
        k(   60) = (  -1.3750000  -0.8750000  -0.1250000), wk =   0.0000000
        k(   61) = (  -1.1250000   0.3750000  -0.3750000), wk =   0.0625000
        k(   62) = (  -1.6250000  -0.6250000  -0.3750000), wk =   0.0000000
        k(   63) = (  -0.3750000   0.3750000   1.1250000), wk =   0.0625000
        k(   64) = (  -0.8750000  -0.6250000   1.1250000), wk =   0.0000000

     Dense  grid:     2837 G-vectors     FFT dimensions: (  20,  20,  20)

     Estimated max dynamical RAM per process >       0.33MB

     Estimated total allocated dynamical RAM >       1.32MB

     Check: negative/imaginary core charge=   -0.000006    0.000000

     The potential is recalculated from file :
     ./_ph0/silicon.10.3410.save/charge-density.dat

     Starting wfc are    8 atomic wfcs

     Band Structure Calculation
     Davidson diagonalization with overlap

     ethr =  1.25E-10,  avg # of iterations = 11.6

     total cpu time spent up to now is        6.4 secs

     End of band structure calculation

          k =-0.1250 0.1250 0.1250 (   338 PWs)   bands (ev):

    -5.6381   4.3699   5.6785   5.6785

          k =-0.6250-0.8750 0.1250 (   361 PWs)   bands (ev):

    -2.4541  -0.9165   2.0111   3.0798

          k =-0.3750 0.3750-0.1250 (   352 PWs)   bands (ev):

    -4.6163   1.3813   3.7016   5.1972

          k =-0.8750-0.6250-0.1250 (   361 PWs)   bands (ev):

    -2.4541  -0.9165   2.0111   3.0798

          k = 0.3750-0.3750 0.6250 (   361 PWs)   bands (ev):

    -3.4840  -0.6865   3.7188   4.4292

          k =-0.1250-1.3750 0.6250 (   361 PWs)   bands (ev):

    -2.9898  -0.6092   2.0670   4.1142

          k = 0.1250-0.1250 0.3750 (   353 PWs)   bands (ev):

    -5.1128   2.7525   4.6741   4.7364

          k =-0.3750-1.1250 0.3750 (   361 PWs)   bands (ev):

    -2.9898  -0.6092   2.0670   4.1142

          k =-0.1250 0.6250 0.1250 (   351 PWs)   bands (ev):

    -4.0856   1.0410   3.3554   3.8027

          k =-0.6250-0.3750 0.1250 (   357 PWs)   bands (ev):

    -3.6728   0.1746   2.7165   4.0777

          k = 0.6250-0.1250 0.8750 (   361 PWs)   bands (ev):

    -2.4541  -0.9165   2.0111   3.0798

          k = 0.1250-1.1250 0.8750 (   358 PWs)   bands (ev):

    -2.6196  -0.8200   2.6156   3.3371

          k = 0.3750 0.1250 0.6250 (   357 PWs)   bands (ev):

    -3.6728   0.1746   2.7165   4.0777

          k =-0.1250-0.8750 0.6250 (   361 PWs)   bands (ev):

    -2.4541  -0.9165   2.0111   3.0798

          k =-0.1250-0.8750 0.1250 (   358 PWs)   bands (ev):

    -2.6196  -0.8200   2.6156   3.3371

          k =-0.6250-1.8750 0.1250 (   351 PWs)   bands (ev):

    -4.0856   1.0410   3.3554   3.8027

          k =-0.3750 0.3750 0.3750 (   353 PWs)   bands (ev):

    -4.1864   0.0992   4.8916   4.8916

          k =-0.8750-0.6250 0.3750 (   357 PWs)   bands (ev):

    -3.6728   0.1746   2.7165   4.0777

          k = 0.3750-0.3750 1.1250 (   361 PWs)   bands (ev):

    -2.9898  -0.6092   2.0670   4.1142

          k =-0.1250-1.3750 1.1250 (   361 PWs)   bands (ev):

    -2.4541  -0.9165   2.0111   3.0798

          k = 0.1250-0.3750 0.3750 (   352 PWs)   bands (ev):

    -4.6163   1.3813   3.7016   5.1972

          k =-0.3750-1.3750 0.3750 (   361 PWs)   bands (ev):

    -3.4840  -0.6865   3.7188   4.4292

          k = 0.3750-0.3750-0.1250 (   352 PWs)   bands (ev):

    -4.6163   1.3813   3.7016   5.1972

          k =-0.1250-1.3750-0.1250 (   351 PWs)   bands (ev):

    -4.0856   1.0410   3.3554   3.8027

          k =-0.6250 0.3750-0.3750 (   361 PWs)   bands (ev):

    -3.4840  -0.6865   3.7188   4.4292

          k =-1.1250-0.6250-0.3750 (   357 PWs)   bands (ev):

    -3.6728   0.1746   2.7165   4.0777

          k =-0.3750 0.3750 0.6250 (   361 PWs)   bands (ev):

    -3.4840  -0.6865   3.7188   4.4292

          k =-0.8750-0.6250 0.6250 (   352 PWs)   bands (ev):

    -4.6163   1.3813   3.7016   5.1972

          k =-0.3750 0.1250-0.1250 (   353 PWs)   bands (ev):

    -5.1128   2.7525   4.6741   4.7364

          k =-0.8750-0.8750-0.1250 (   358 PWs)   bands (ev):

    -2.6196  -0.8200   2.6156   3.3371

          k =-0.1250 0.1250 0.3750 (   353 PWs)   bands (ev):

    -5.1128   2.7525   4.6741   4.7364

          k =-0.6250-0.8750 0.3750 (   357 PWs)   bands (ev):

    -3.6728   0.1746   2.7165   4.0777

          k = 0.1250 0.6250-0.1250 (   351 PWs)   bands (ev):

    -4.0856   1.0410   3.3554   3.8027

          k =-0.3750-0.3750-0.1250 (   352 PWs)   bands (ev):

    -4.6163   1.3813   3.7016   5.1972

          k = 0.6250 0.1250-0.1250 (   351 PWs)   bands (ev):

    -4.0856   1.0410   3.3554   3.8027

          k = 0.1250-0.8750-0.1250 (   358 PWs)   bands (ev):

    -2.6196  -0.8200   2.6156   3.3371

          k =-0.8750 0.1250-0.6250 (   361 PWs)   bands (ev):

    -2.4541  -0.9165   2.0111   3.0798

          k =-1.3750-0.8750-0.6250 (   352 PWs)   bands (ev):

    -4.6163   1.3813   3.7016   5.1972

          k = 0.8750-0.1250 0.6250 (   361 PWs)   bands (ev):

    -2.4541  -0.9165   2.0111   3.0798

          k = 0.3750-1.1250 0.6250 (   357 PWs)   bands (ev):

    -3.6728   0.1746   2.7165   4.0777

          k =-0.6250 0.1250 0.8750 (   361 PWs)   bands (ev):

    -2.4541  -0.9165   2.0111   3.0798

          k =-1.1250-0.8750 0.8750 (   338 PWs)   bands (ev):

    -5.6381   4.3699   5.6785   5.6785

          k =-0.1250 0.8750 0.6250 (   361 PWs)   bands (ev):

    -2.4541  -0.9165   2.0111   3.0798

          k =-0.6250-0.1250 0.6250 (   361 PWs)   bands (ev):

    -2.9898  -0.6092   2.0670   4.1142

          k = 0.1250 0.8750-0.6250 (   361 PWs)   bands (ev):

    -2.4541  -0.9165   2.0111   3.0798

          k =-0.3750-0.1250-0.6250 (   357 PWs)   bands (ev):

    -3.6728   0.1746   2.7165   4.0777

          k =-0.6250-0.1250-0.3750 (   357 PWs)   bands (ev):

    -3.6728   0.1746   2.7165   4.0777

          k =-1.1250-1.1250-0.3750 (   351 PWs)   bands (ev):

    -4.0856   1.0410   3.3554   3.8027

          k = 0.6250 0.1250 0.3750 (   357 PWs)   bands (ev):

    -3.6728   0.1746   2.7165   4.0777

          k = 0.1250-0.8750 0.3750 (   361 PWs)   bands (ev):

    -2.4541  -0.9165   2.0111   3.0798

          k =-0.3750-0.1250 0.6250 (   357 PWs)   bands (ev):

    -3.6728   0.1746   2.7165   4.0777

          k =-0.8750-1.1250 0.6250 (   353 PWs)   bands (ev):

    -5.1128   2.7525   4.6741   4.7364

          k = 0.1250 0.6250 0.3750 (   357 PWs)   bands (ev):

    -3.6728   0.1746   2.7165   4.0777

          k =-0.3750-0.3750 0.3750 (   353 PWs)   bands (ev):

    -4.1864   0.0992   4.8916   4.8916

          k =-0.1250 0.6250-0.3750 (   357 PWs)   bands (ev):

    -3.6728   0.1746   2.7165   4.0777

          k =-0.6250-0.3750-0.3750 (   361 PWs)   bands (ev):

    -3.4840  -0.6865   3.7188   4.4292

          k = 0.1250-0.8750-0.1250 (   358 PWs)   bands (ev):

    -2.6196  -0.8200   2.6156   3.3371

          k =-0.3750-1.8750-0.1250 (   353 PWs)   bands (ev):

    -5.1128   2.7525   4.6741   4.7364

          k =-0.8750 0.1250-0.1250 (   358 PWs)   bands (ev):

    -2.6196  -0.8200   2.6156   3.3371

          k =-1.3750-0.8750-0.1250 (   361 PWs)   bands (ev):

    -2.4541  -0.9165   2.0111   3.0798

          k =-1.1250 0.3750-0.3750 (   361 PWs)   bands (ev):

    -2.9898  -0.6092   2.0670   4.1142

          k =-1.6250-0.6250-0.3750 (   361 PWs)   bands (ev):

    -3.4840  -0.6865   3.7188   4.4292

          k =-0.3750 0.3750 1.1250 (   361 PWs)   bands (ev):

    -2.9898  -0.6092   2.0670   4.1142

          k =-0.8750-0.6250 1.1250 (   353 PWs)   bands (ev):

    -5.1128   2.7525   4.6741   4.7364

     highest occupied level (ev):     5.6785

     Writing output data file silicon.10.3410.save

                                                                                

     bravais-lattice index     =            2
     lattice parameter (alat)  =      10.3410  a.u.
     unit-cell volume          =     276.4570 (a.u.)^3
     number of atoms/cell      =            2
     number of atomic types    =            1
     kinetic-energy cut-off    =      18.0000  Ry
     charge density cut-off    =      72.0000  Ry
     convergence threshold     =      1.0E-12
     beta                      =       0.7000
     number of iterations used =            4
     Exchange-correlation      = SLA  PW   PBE  PBE ( 1  4  3  4 0 0)


     celldm(1)=   10.34100  celldm(2)=    0.00000  celldm(3)=    0.00000
     celldm(4)=    0.00000  celldm(5)=    0.00000  celldm(6)=    0.00000

     crystal axes: (cart. coord. in units of alat)
               a(1) = ( -0.5000  0.0000  0.5000 )  
               a(2) = (  0.0000  0.5000  0.5000 )  
               a(3) = ( -0.5000  0.5000  0.0000 )  

     reciprocal axes: (cart. coord. in units 2 pi/alat)
               b(1) = ( -1.0000 -1.0000  1.0000 )  
               b(2) = (  1.0000  1.0000  1.0000 )  
               b(3) = ( -1.0000  1.0000 -1.0000 )  


     Atoms inside the unit cell: 

     Cartesian axes

     site n.  atom      mass           positions (alat units)
        1     Si  28.0860   tau(    1) = (    0.00000    0.00000    0.00000  )
        2     Si  28.0860   tau(    2) = (    0.25000    0.25000    0.25000  )

     Computing dynamical matrix for 
                    q = (  -0.5000000  -1.0000000   0.0000000 )

      8 Sym.Ops. (no q -> -q+G )


     G cutoff =  195.0284  (    710 G-vectors)     FFT grid: ( 20, 20, 20)
     number of k points=    64

     PseudoPot. # 1 for Si read from file:
     /home/max/quantum_espresso/qe-6.1/pseudo/si_pbe_v1.uspp.F.UPF.txt
     MD5 check sum: a056efeee980c13900f22a371efd63c1
     Pseudo is Ultrasoft + core correction, Zval =  4.0
     Generated by new atomic code, or converted to UPF format
     Using radial grid of  899 points,  6 beta functions with: 
                l(1) =   0
                l(2) =   0
                l(3) =   1
                l(4) =   1
                l(5) =   2
                l(6) =   2
     Q(r) pseudized with  8 coefficients,  rinner =    0.900   0.900   0.900
                                                       0.900   0.900


     Atomic displacements:
     There are   3 irreducible representations

     Representation     1      2 modes -  To be done

     Representation     2      2 modes -  To be done

     Representation     3      2 modes -  To be done



     Alpha used in Ewald sum =   0.7000
     PHONON       :  1m13.63s CPU     1m18.59s WALL



     Representation #  1 modes #   1  2

     Self-consistent Calculation

      iter #   1 total cpu time :    79.0 secs   av.it.:   5.3
      thresh= 1.000E-02 alpha_mix =  0.700 |ddv_scf|^2 =  6.367E-06

      iter #   2 total cpu time :    79.3 secs   av.it.:   9.9
      thresh= 2.523E-04 alpha_mix =  0.700 |ddv_scf|^2 =  3.436E-06

      iter #   3 total cpu time :    79.7 secs   av.it.:   9.3
      thresh= 1.854E-04 alpha_mix =  0.700 |ddv_scf|^2 =  9.060E-09

      iter #   4 total cpu time :    80.0 secs   av.it.:   9.1
      thresh= 9.518E-06 alpha_mix =  0.700 |ddv_scf|^2 =  1.959E-11

      iter #   5 total cpu time :    80.3 secs   av.it.:   9.2
      thresh= 4.426E-07 alpha_mix =  0.700 |ddv_scf|^2 =  5.767E-13

     End of self-consistent calculation

     Convergence has been achieved 


     Representation #  2 modes #   3  4

     Self-consistent Calculation

      iter #   1 total cpu time :    80.5 secs   av.it.:   5.2
      thresh= 1.000E-02 alpha_mix =  0.700 |ddv_scf|^2 =  9.810E-06

      iter #   2 total cpu time :    81.0 secs   av.it.:   9.9
      thresh= 3.132E-04 alpha_mix =  0.700 |ddv_scf|^2 =  1.308E-05

      iter #   3 total cpu time :    81.3 secs   av.it.:   9.1
      thresh= 3.617E-04 alpha_mix =  0.700 |ddv_scf|^2 =  1.054E-08

      iter #   4 total cpu time :    81.6 secs   av.it.:   8.8
      thresh= 1.027E-05 alpha_mix =  0.700 |ddv_scf|^2 =  8.448E-11

      iter #   5 total cpu time :    81.9 secs   av.it.:   9.4
      thresh= 9.191E-07 alpha_mix =  0.700 |ddv_scf|^2 =  1.799E-12

      iter #   6 total cpu time :    82.2 secs   av.it.:   9.1
      thresh= 1.341E-07 alpha_mix =  0.700 |ddv_scf|^2 =  1.474E-14

     End of self-consistent calculation

     Convergence has been achieved 


     Representation #  3 modes #   5  6

     Self-consistent Calculation

      iter #   1 total cpu time :    82.5 secs   av.it.:   5.1
      thresh= 1.000E-02 alpha_mix =  0.700 |ddv_scf|^2 =  2.669E-06

      iter #   2 total cpu time :    83.0 secs   av.it.:   9.7
      thresh= 1.634E-04 alpha_mix =  0.700 |ddv_scf|^2 =  1.452E-06

      iter #   3 total cpu time :    83.3 secs   av.it.:   9.0
      thresh= 1.205E-04 alpha_mix =  0.700 |ddv_scf|^2 =  8.772E-09

      iter #   4 total cpu time :    83.6 secs   av.it.:   8.7
      thresh= 9.366E-06 alpha_mix =  0.700 |ddv_scf|^2 =  4.410E-11

      iter #   5 total cpu time :    83.9 secs   av.it.:   9.1
      thresh= 6.641E-07 alpha_mix =  0.700 |ddv_scf|^2 =  6.911E-13

     End of self-consistent calculation

     Convergence has been achieved 

     Number of q in the star =    6
     List of q in the star:
          1  -0.500000000  -1.000000000   0.000000000
          2   0.000000000   1.000000000   0.500000000
          3   0.000000000  -1.000000000  -0.500000000
          4   0.500000000   1.000000000   0.000000000
          5  -1.000000000  -0.500000000   0.000000000
          6   0.000000000  -0.500000000  -1.000000000

     Diagonalizing the dynamical matrix

     q = (   -0.500000000  -1.000000000   0.000000000 ) 

 **************************************************************************
     freq (    1) =       7.326419 [THz] =     244.383018 [cm-1]
     freq (    2) =       7.326419 [THz] =     244.383018 [cm-1]
     freq (    3) =      10.950077 [THz] =     365.255251 [cm-1]
     freq (    4) =      10.950077 [THz] =     365.255251 [cm-1]
     freq (    5) =      13.877556 [THz] =     462.905455 [cm-1]
     freq (    6) =      13.877556 [THz] =     462.905455 [cm-1]
 **************************************************************************

     init_run     :      0.52s CPU      0.54s WALL (       7 calls)
     electrons    :      4.77s CPU      4.98s WALL (       7 calls)

     Called by init_run:
     wfcinit      :      0.00s CPU      0.00s WALL (       7 calls)
     potinit      :      0.02s CPU      0.02s WALL (       7 calls)

     Called by electrons:
     c_bands      :      4.77s CPU      4.96s WALL (       7 calls)
     v_of_rho     :      0.01s CPU      0.01s WALL (       8 calls)
     newd         :      0.03s CPU      0.03s WALL (       8 calls)

     Called by c_bands:
     init_us_2    :      0.67s CPU      0.74s WALL (   17588 calls)
     cegterg      :      4.03s CPU      4.19s WALL (     796 calls)

     Called by sum_band:

     Called by *egterg:
     h_psi        :     43.71s CPU     46.65s WALL (  152120 calls)
     s_psi        :      5.73s CPU      6.11s WALL (  308960 calls)
     g_psi        :      0.03s CPU      0.03s WALL (    9268 calls)
     cdiaghg      :      0.43s CPU      0.45s WALL (   10064 calls)

     Called by h_psi:
     h_psi:pot    :     43.53s CPU     46.45s WALL (  152120 calls)
     h_psi:calbec :      4.50s CPU      4.82s WALL (  152120 calls)
     vloc_psi     :     35.94s CPU     38.38s WALL (  152120 calls)
     add_vuspsi   :      2.87s CPU      3.05s WALL (  152120 calls)

     General routines
     calbec       :      9.74s CPU     10.42s WALL (  345332 calls)
     fft          :      0.33s CPU      0.33s WALL (    5239 calls)
     ffts         :      0.13s CPU      0.14s WALL (    2748 calls)
     fftw         :     41.54s CPU     44.34s WALL ( 1377396 calls)
     davcio       :      0.32s CPU      0.34s WALL (   79045 calls)

     Parallel routines
     fft_scatter  :      9.65s CPU     10.53s WALL ( 1385383 calls)

     PHONON       :  1m18.58s CPU     1m23.90s WALL

     INITIALIZATION: 
     phq_setup    :      0.05s CPU      0.05s WALL (       8 calls)
     phq_init     :      1.97s CPU      2.01s WALL (       8 calls)

     phq_init     :      1.97s CPU      2.01s WALL (       8 calls)
     set_drhoc    :      0.29s CPU      0.29s WALL (      24 calls)
     init_vloc    :      0.01s CPU      0.01s WALL (       8 calls)
     init_us_1    :      0.47s CPU      0.48s WALL (       8 calls)
     newd         :      0.03s CPU      0.03s WALL (       8 calls)
     dvanqq       :      0.23s CPU      0.23s WALL (       8 calls)
     drho         :      0.98s CPU      1.01s WALL (       8 calls)

     DYNAMICAL MATRIX:
     dynmat0      :      0.53s CPU      0.53s WALL (       8 calls)
     phqscf       :     68.67s CPU     73.56s WALL (       8 calls)
     dynmatrix    :      0.01s CPU      0.02s WALL (       8 calls)

     phqscf       :     68.67s CPU     73.56s WALL (       8 calls)
     solve_linter :     67.97s CPU     72.84s WALL (      32 calls)
     drhodv       :      0.49s CPU      0.50s WALL (      32 calls)

     dynmat0      :      0.53s CPU      0.53s WALL (       8 calls)
     dynmat_us    :      0.29s CPU      0.29s WALL (       8 calls)
     d2ionq       :      0.01s CPU      0.01s WALL (       8 calls)
     dynmatcc     :      0.21s CPU      0.21s WALL (       8 calls)

     dynmat_us    :      0.29s CPU      0.29s WALL (       8 calls)
     addusdynmat  :      0.00s CPU      0.00s WALL (       8 calls)

     phqscf       :     68.67s CPU     73.56s WALL (       8 calls)
     solve_linter :     67.97s CPU     72.84s WALL (      32 calls)

     solve_linter :     67.97s CPU     72.84s WALL (      32 calls)
     dvqpsi_us    :      1.62s CPU      1.77s WALL (    2508 calls)
     ortho        :      1.03s CPU      1.15s WALL (   15550 calls)
     cgsolve      :     53.51s CPU     57.33s WALL (   15550 calls)
     incdrhoscf   :      4.68s CPU      5.01s WALL (   15550 calls)
     addusddens   :      1.11s CPU      1.14s WALL (     228 calls)
     vpsifft      :      3.34s CPU      3.54s WALL (   12922 calls)
     dv_of_drho   :      0.20s CPU      0.20s WALL (     295 calls)
     mix_pot      :      0.06s CPU      0.06s WALL (     201 calls)
     psymdvscf    :      0.80s CPU      0.81s WALL (     196 calls)
     newdq        :      1.18s CPU      1.26s WALL (     201 calls)
     adddvscf     :      0.46s CPU      0.49s WALL (   13042 calls)
     drhodvus     :      0.00s CPU      0.00s WALL (      32 calls)

     dvqpsi_us    :      1.62s CPU      1.77s WALL (    2508 calls)
     dvqpsi_us_on :      0.82s CPU      0.93s WALL (    2508 calls)

     cgsolve      :     53.51s CPU     57.33s WALL (   15550 calls)
     ch_psi       :     51.75s CPU     55.36s WALL (  141260 calls)

     ch_psi       :     51.75s CPU     55.36s WALL (  141260 calls)
     h_psi        :     43.71s CPU     46.65s WALL (  152120 calls)
     last         :      8.37s CPU      9.00s WALL (  141260 calls)

     h_psi        :     43.71s CPU     46.65s WALL (  152120 calls)
     add_vuspsi   :      2.87s CPU      3.05s WALL (  152120 calls)

     incdrhoscf   :      4.68s CPU      5.01s WALL (   15550 calls)
     addusdbec    :      0.66s CPU      0.71s WALL (   17998 calls)

     drhodvus     :      0.00s CPU      0.00s WALL (      32 calls)

      General routines
     calbec       :      9.74s CPU     10.42s WALL (  345332 calls)
     fft          :      0.33s CPU      0.33s WALL (    5239 calls)
     ffts         :      0.13s CPU      0.14s WALL (    2748 calls)
     fftw         :     41.54s CPU     44.34s WALL ( 1377396 calls)
     davcio       :      0.32s CPU      0.34s WALL (   79045 calls)
     write_rec    :      0.20s CPU      0.22s WALL (     233 calls)


     PHONON       :  1m18.58s CPU     1m23.90s WALL


   This run was terminated on:  16:10:37   9Nov2017            

=------------------------------------------------------------------------------=
   JOB DONE.
=------------------------------------------------------------------------------=
