
     Program PWSCF v.6.1 (svn rev. 13369) starts on 10Nov2017 at 13:47:39 

     This program is part of the open-source Quantum ESPRESSO suite
     for quantum simulation of materials; please cite
         "P. Giannozzi et al., J. Phys.:Condens. Matter 21 395502 (2009);
          URL http://www.quantum-espresso.org", 
     in publications or presentations arising from this work. More details at
     http://www.quantum-espresso.org/quote

     Parallel version (MPI), running on     4 processors
     R & G space division:  proc/nbgrp/npool/nimage =       4
     Waiting for input...
     Reading input from standard input
     Message from routine read_cards :
     DEPRECATED: no units specified in ATOMIC_POSITIONS card
     Message from routine read_cards :
     ATOMIC_POSITIONS: units set to alat

     Current dimensions of program PWSCF are:
     Max number of different atomic species (ntypx) = 10
     Max number of k-points (npk) =  40000
     Max angular momentum in pseudopotentials (lmaxx) =  3

     Subspace diagonalization in iterative solution of the eigenvalue problem:
     a serial algorithm will be used


     Parallelization info
     --------------------
     sticks:   dense  smooth     PW     G-vecs:    dense   smooth      PW
     Min         264     129     40                 5664     1996     362
     Max         265     130     41                 5665     1999     366
     Sum        1057     517    163                22659     7991    1459



     bravais-lattice index     =            2
     lattice parameter (alat)  =      10.3330  a.u.
     unit-cell volume          =     275.8159 (a.u.)^3
     number of atoms/cell      =            2
     number of atomic types    =            1
     number of electrons       =         8.00
     number of Kohn-Sham states=            4
     kinetic-energy cutoff     =      36.0000  Ry
     charge density cutoff     =     288.0000  Ry
     convergence threshold     =      1.0E-08
     mixing beta               =       0.7000
     number of iterations used =            8  plain     mixing
     Exchange-correlation      = SLA  PW   PBE  PBE ( 1  4  3  4 0 0)

     celldm(1)=  10.333000  celldm(2)=   0.000000  celldm(3)=   0.000000
     celldm(4)=   0.000000  celldm(5)=   0.000000  celldm(6)=   0.000000

     crystal axes: (cart. coord. in units of alat)
               a(1) = (  -0.500000   0.000000   0.500000 )  
               a(2) = (   0.000000   0.500000   0.500000 )  
               a(3) = (  -0.500000   0.500000   0.000000 )  

     reciprocal axes: (cart. coord. in units 2 pi/alat)
               b(1) = ( -1.000000 -1.000000  1.000000 )  
               b(2) = (  1.000000  1.000000  1.000000 )  
               b(3) = ( -1.000000  1.000000 -1.000000 )  


     PseudoPot. # 1 for Si read from file:
     /home/s1333534/quantum_espresso/qe-6.1/pseudo/si_pbe_v1.uspp.F.UPF.txt
     MD5 check sum: a056efeee980c13900f22a371efd63c1
     Pseudo is Ultrasoft + core correction, Zval =  4.0
     Generated by new atomic code, or converted to UPF format
     Using radial grid of  899 points,  6 beta functions with: 
                l(1) =   0
                l(2) =   0
                l(3) =   1
                l(4) =   1
                l(5) =   2
                l(6) =   2
     Q(r) pseudized with  8 coefficients,  rinner =    0.900   0.900   0.900
                                                       0.900   0.900

     atomic species   valence    mass     pseudopotential
        Si             4.00    28.08600     Si( 1.00)

     48 Sym. Ops., with inversion, found (24 have fractional translation)



   Cartesian axes

     site n.     atom                  positions (alat units)
         1           Si  tau(   1) = (   0.0000000   0.0000000   0.0000000  )
         2           Si  tau(   2) = (   0.2500000   0.2500000   0.2500000  )

     number of k points=    10
                       cart. coord. in units 2pi/alat
        k(    1) = (  -0.1250000   0.1250000   0.1250000), wk =   0.0625000
        k(    2) = (  -0.3750000   0.3750000  -0.1250000), wk =   0.1875000
        k(    3) = (   0.3750000  -0.3750000   0.6250000), wk =   0.1875000
        k(    4) = (   0.1250000  -0.1250000   0.3750000), wk =   0.1875000
        k(    5) = (  -0.1250000   0.6250000   0.1250000), wk =   0.1875000
        k(    6) = (   0.6250000  -0.1250000   0.8750000), wk =   0.3750000
        k(    7) = (   0.3750000   0.1250000   0.6250000), wk =   0.3750000
        k(    8) = (  -0.1250000  -0.8750000   0.1250000), wk =   0.1875000
        k(    9) = (  -0.3750000   0.3750000   0.3750000), wk =   0.0625000
        k(   10) = (   0.3750000  -0.3750000   1.1250000), wk =   0.1875000

     Dense  grid:    22659 G-vectors     FFT dimensions: (  40,  40,  40)

     Smooth grid:     7991 G-vectors     FFT dimensions: (  27,  27,  27)

     Estimated max dynamical RAM per process >       3.78MB

     Estimated total allocated dynamical RAM >      15.11MB

     Initial potential from superposition of free atoms

     starting charge    7.99866, renormalised to    8.00000
     Starting wfc are    8 randomized atomic wfcs

     total cpu time spent up to now is        0.3 secs

     per-process dynamical memory:    10.6 Mb

     Self-consistent Calculation

     iteration #  1     ecut=    36.00 Ry     beta=0.70
     Davidson diagonalization with overlap
     ethr =  1.00E-02,  avg # of iterations =  2.0

     Threshold (ethr) on eigenvalues was too large:
     Diagonalizing with lowered threshold

     Davidson diagonalization with overlap
     ethr =  6.77E-04,  avg # of iterations =  1.1

     total cpu time spent up to now is        0.5 secs

     total energy              =     -19.19115996 Ry
     Harris-Foulkes estimate   =     -19.20364047 Ry
     estimated scf accuracy    <       0.05377922 Ry

     iteration #  2     ecut=    36.00 Ry     beta=0.70
     Davidson diagonalization with overlap
     ethr =  6.72E-04,  avg # of iterations =  1.0

     total cpu time spent up to now is        0.6 secs

     total energy              =     -19.19290103 Ry
     Harris-Foulkes estimate   =     -19.19307371 Ry
     estimated scf accuracy    <       0.00245723 Ry

     iteration #  3     ecut=    36.00 Ry     beta=0.70
     Davidson diagonalization with overlap
     ethr =  3.07E-05,  avg # of iterations =  2.1

     total cpu time spent up to now is        0.7 secs

     total energy              =     -19.19322484 Ry
     Harris-Foulkes estimate   =     -19.19323656 Ry
     estimated scf accuracy    <       0.00004129 Ry

     iteration #  4     ecut=    36.00 Ry     beta=0.70
     Davidson diagonalization with overlap
     ethr =  5.16E-07,  avg # of iterations =  3.4

     total cpu time spent up to now is        0.8 secs

     total energy              =     -19.19326533 Ry
     Harris-Foulkes estimate   =     -19.19326600 Ry
     estimated scf accuracy    <       0.00000266 Ry

     iteration #  5     ecut=    36.00 Ry     beta=0.70
     Davidson diagonalization with overlap
     ethr =  3.32E-08,  avg # of iterations =  2.1

     total cpu time spent up to now is        0.9 secs

     End of self-consistent calculation

          k =-0.1250 0.1250 0.1250 (   986 PWs)   bands (ev):

    -5.6374   4.3885   5.6978   5.6978

          k =-0.3750 0.3750-0.1250 (  1001 PWs)   bands (ev):

    -4.6112   1.3966   3.7125   5.2178

          k = 0.3750-0.3750 0.6250 (  1007 PWs)   bands (ev):

    -3.4721  -0.6806   3.7331   4.4467

          k = 0.1250-0.1250 0.3750 (   996 PWs)   bands (ev):

    -5.1098   2.7727   4.6903   4.7542

          k =-0.1250 0.6250 0.1250 (  1012 PWs)   bands (ev):

    -4.0788   1.0624   3.3641   3.8166

          k = 0.6250-0.1250 0.8750 (  1008 PWs)   bands (ev):

    -2.4398  -0.8987   2.0104   3.0866

          k = 0.3750 0.1250 0.6250 (  1012 PWs)   bands (ev):

    -3.6635   0.1897   2.7225   4.0912

          k =-0.1250-0.8750 0.1250 (  1007 PWs)   bands (ev):

    -2.6074  -0.8014   2.6201   3.3499

          k =-0.3750 0.3750 0.3750 (  1008 PWs)   bands (ev):

    -4.1784   0.1070   4.9109   4.9109

          k = 0.3750-0.3750 1.1250 (  1001 PWs)   bands (ev):

    -2.9766  -0.5961   2.0686   4.1298

     highest occupied level (ev):     5.6978

!    total energy              =     -19.19326567 Ry
     Harris-Foulkes estimate   =     -19.19326566 Ry
     estimated scf accuracy    <          7.5E-09 Ry

     The total energy is the sum of the following terms:

     one-electron contribution =       4.95155822 Ry
     hartree contribution      =       1.13437459 Ry
     xc contribution           =      -8.59696318 Ry
     ewald contribution        =     -16.68223531 Ry

     convergence has been achieved in   5 iterations


     Computing stress (Cartesian axis) and pressure

          total   stress  (Ry/bohr**3)                   (kbar)     P=   -0.36
  -0.00000248   0.00000000   0.00000000         -0.36      0.00      0.00
   0.00000000  -0.00000248  -0.00000000          0.00     -0.36     -0.00
   0.00000000  -0.00000000  -0.00000248          0.00     -0.00     -0.36


     Writing output data file silicon.36.save

     init_run     :      0.22s CPU      0.24s WALL (       1 calls)
     electrons    :      0.56s CPU      0.61s WALL (       1 calls)
     stress       :      0.21s CPU      0.21s WALL (       1 calls)

     Called by init_run:
     wfcinit      :      0.02s CPU      0.02s WALL (       1 calls)
     potinit      :      0.02s CPU      0.02s WALL (       1 calls)

     Called by electrons:
     c_bands      :      0.17s CPU      0.18s WALL (       6 calls)
     sum_band     :      0.22s CPU      0.24s WALL (       6 calls)
     v_of_rho     :      0.07s CPU      0.07s WALL (       6 calls)
     newd         :      0.12s CPU      0.12s WALL (       6 calls)
     mix_rho      :      0.00s CPU      0.00s WALL (       6 calls)

     Called by c_bands:
     init_us_2    :      0.02s CPU      0.02s WALL (     140 calls)
     cegterg      :      0.14s CPU      0.15s WALL (      60 calls)

     Called by sum_band:
     sum_band:bec :      0.00s CPU      0.00s WALL (      60 calls)
     addusdens    :      0.16s CPU      0.18s WALL (       6 calls)

     Called by *egterg:
     h_psi        :      0.14s CPU      0.14s WALL (     187 calls)
     s_psi        :      0.01s CPU      0.01s WALL (     187 calls)
     g_psi        :      0.00s CPU      0.00s WALL (     117 calls)
     cdiaghg      :      0.01s CPU      0.01s WALL (     167 calls)

     Called by h_psi:
     h_psi:pot    :      0.14s CPU      0.14s WALL (     187 calls)
     h_psi:calbec :      0.01s CPU      0.01s WALL (     187 calls)
     vloc_psi     :      0.12s CPU      0.13s WALL (     187 calls)
     add_vuspsi   :      0.01s CPU      0.01s WALL (     187 calls)

     General routines
     calbec       :      0.01s CPU      0.01s WALL (     257 calls)
     fft          :      0.03s CPU      0.04s WALL (     110 calls)
     ffts         :      0.00s CPU      0.00s WALL (      12 calls)
     fftw         :      0.14s CPU      0.13s WALL (    1654 calls)
     interpolate  :      0.01s CPU      0.01s WALL (      12 calls)
     davcio       :      0.00s CPU      0.00s WALL (      10 calls)

     Parallel routines
     fft_scatter  :      0.03s CPU      0.03s WALL (    1776 calls)

     PWSCF        :     1.09s CPU         1.34s WALL


   This run was terminated on:  13:47:40  10Nov2017            

=------------------------------------------------------------------------------=
   JOB DONE.
=------------------------------------------------------------------------------=
