
     Program PHONON v.6.1 (svn rev. 13369) starts on  9Nov2017 at 12:17:53 

     This program is part of the open-source Quantum ESPRESSO suite
     for quantum simulation of materials; please cite
         "P. Giannozzi et al., J. Phys.:Condens. Matter 21 395502 (2009);
          URL http://www.quantum-espresso.org", 
     in publications or presentations arising from this work. More details at
     http://www.quantum-espresso.org/quote

     Parallel version (MPI), running on     4 processors
     R & G space division:  proc/nbgrp/npool/nimage =       4

     Reading data from directory:
     ./silicon.10.330.save

   Info: using nr1, nr2, nr3 values from input

   Info: using nr1, nr2, nr3 values from input

     IMPORTANT: XC functional enforced from input :
     Exchange-correlation      = SLA  PW   PBE  PBE ( 1  4  3  4 0 0)
     Any further DFT definition will be discarded
     Please, verify this is what you really want


     Parallelization info
     --------------------
     sticks:   dense  smooth     PW     G-vecs:    dense   smooth      PW
     Min          63      63     22                  684      684     140
     Max          64      64     23                  688      688     141
     Sum         253     253     91                 2741     2741     561


     Check: negative/imaginary core charge=   -0.000005    0.000000


     Dynamical matrices for ( 4, 4, 4)  uniform grid of q-points
     (   8q-points):
       N         xq(1)         xq(2)         xq(3) 
       1   0.000000000   0.000000000   0.000000000
       2  -0.250000000   0.250000000  -0.250000000
       3   0.500000000  -0.500000000   0.500000000
       4   0.000000000   0.500000000   0.000000000
       5   0.750000000  -0.250000000   0.750000000
       6   0.500000000   0.000000000   0.500000000
       7   0.000000000  -1.000000000   0.000000000
       8  -0.500000000  -1.000000000   0.000000000

     Calculation of q =    0.0000000   0.0000000   0.0000000

                                                                                

     bravais-lattice index     =            2
     lattice parameter (alat)  =      10.3300  a.u.
     unit-cell volume          =     275.5757 (a.u.)^3
     number of atoms/cell      =            2
     number of atomic types    =            1
     kinetic-energy cut-off    =      18.0000  Ry
     charge density cut-off    =      72.0000  Ry
     convergence threshold     =      1.0E-12
     beta                      =       0.7000
     number of iterations used =            4
     Exchange-correlation      = SLA  PW   PBE  PBE ( 1  4  3  4 0 0)


     celldm(1)=   10.33000  celldm(2)=    0.00000  celldm(3)=    0.00000
     celldm(4)=    0.00000  celldm(5)=    0.00000  celldm(6)=    0.00000

     crystal axes: (cart. coord. in units of alat)
               a(1) = ( -0.5000  0.0000  0.5000 )  
               a(2) = (  0.0000  0.5000  0.5000 )  
               a(3) = ( -0.5000  0.5000  0.0000 )  

     reciprocal axes: (cart. coord. in units 2 pi/alat)
               b(1) = ( -1.0000 -1.0000  1.0000 )  
               b(2) = (  1.0000  1.0000  1.0000 )  
               b(3) = ( -1.0000  1.0000 -1.0000 )  


     Atoms inside the unit cell: 

     Cartesian axes

     site n.  atom      mass           positions (alat units)
        1     Si  28.0860   tau(    1) = (    0.00000    0.00000    0.00000  )
        2     Si  28.0860   tau(    2) = (    0.25000    0.25000    0.25000  )

     Computing dynamical matrix for 
                    q = (   0.0000000   0.0000000   0.0000000 )

     49 Sym.Ops. (with q -> -q+G )


     G cutoff =  194.6137  (    685 G-vectors)     FFT grid: ( 20, 20, 20)
     number of k points=    10

     PseudoPot. # 1 for Si read from file:
     /home/max/quantum_espresso/qe-6.1/pseudo/si_pbe_v1.uspp.F.UPF.txt
     MD5 check sum: a056efeee980c13900f22a371efd63c1
     Pseudo is Ultrasoft + core correction, Zval =  4.0
     Generated by new atomic code, or converted to UPF format
     Using radial grid of  899 points,  6 beta functions with: 
                l(1) =   0
                l(2) =   0
                l(3) =   1
                l(4) =   1
                l(5) =   2
                l(6) =   2
     Q(r) pseudized with  8 coefficients,  rinner =    0.900   0.900   0.900
                                                       0.900   0.900

     Mode symmetry, O_h (m-3m)  point group:


     Electric field:
     Dielectric constant
     Born effective charges in two ways 


     Atomic displacements:
     There are   2 irreducible representations

     Representation     1      3 modes -T_2g G_25' G_5+  To be done

     Representation     2      3 modes -T_1u G_15  G_4-  To be done



     Alpha used in Ewald sum =   0.7000
     PHONON       :     0.45s CPU         0.46s WALL


     Electric Fields Calculation

      iter #   1 total cpu time :     1.3 secs   av.it.:   5.6
      thresh= 1.000E-02 alpha_mix =  0.700 |ddv_scf|^2 =  9.056E-07

      iter #   2 total cpu time :     1.5 secs   av.it.:   9.9
      thresh= 9.517E-05 alpha_mix =  0.700 |ddv_scf|^2 =  5.570E-08

      iter #   3 total cpu time :     1.7 secs   av.it.:   9.8
      thresh= 2.360E-05 alpha_mix =  0.700 |ddv_scf|^2 =  4.229E-09

      iter #   4 total cpu time :     1.9 secs   av.it.:   8.9
      thresh= 6.503E-06 alpha_mix =  0.700 |ddv_scf|^2 =  2.491E-11

      iter #   5 total cpu time :     2.1 secs   av.it.:   9.1
      thresh= 4.991E-07 alpha_mix =  0.700 |ddv_scf|^2 =  1.325E-14

     End of electric fields calculation

          Dielectric constant in cartesian axis 

          (      13.863925199       0.000000000       0.000000000 )
          (       0.000000000      13.863925199       0.000000000 )
          (      -0.000000000       0.000000000      13.863925199 )

          Effective charges (d Force / dE) in cartesian axis

           atom      1   Si 
      Ex  (       -0.03113       -0.00000       -0.00000 )
      Ey  (       -0.00000       -0.03113        0.00000 )
      Ez  (       -0.00000        0.00000       -0.03113 )
           atom      2   Si 
      Ex  (       -0.03113        0.00000        0.00000 )
      Ey  (        0.00000       -0.03113        0.00000 )
      Ez  (        0.00000       -0.00000       -0.03113 )


     Representation #  1 modes #   1  2  3

     Self-consistent Calculation

      iter #   1 total cpu time :     3.0 secs   av.it.:   4.9
      thresh= 1.000E-02 alpha_mix =  0.700 |ddv_scf|^2 =  2.249E-07

      iter #   2 total cpu time :     3.2 secs   av.it.:   9.7
      thresh= 4.743E-05 alpha_mix =  0.700 |ddv_scf|^2 =  1.393E-08

      iter #   3 total cpu time :     3.4 secs   av.it.:   9.3
      thresh= 1.180E-05 alpha_mix =  0.700 |ddv_scf|^2 =  8.585E-10

      iter #   4 total cpu time :     3.6 secs   av.it.:   9.0
      thresh= 2.930E-06 alpha_mix =  0.700 |ddv_scf|^2 =  1.886E-12

      iter #   5 total cpu time :     3.8 secs   av.it.:   9.4
      thresh= 1.373E-07 alpha_mix =  0.700 |ddv_scf|^2 =  1.229E-14

     End of self-consistent calculation

     Convergence has been achieved 


     Representation #  2 modes #   4  5  6

     Self-consistent Calculation

      iter #   1 total cpu time :     4.1 secs   av.it.:   5.0
      thresh= 1.000E-02 alpha_mix =  0.700 |ddv_scf|^2 =  1.706E-07

      iter #   2 total cpu time :     4.3 secs   av.it.:   9.6
      thresh= 4.131E-05 alpha_mix =  0.700 |ddv_scf|^2 =  1.331E-08

      iter #   3 total cpu time :     4.7 secs   av.it.:   9.3
      thresh= 1.154E-05 alpha_mix =  0.700 |ddv_scf|^2 =  8.482E-10

      iter #   4 total cpu time :     4.9 secs   av.it.:   9.5
      thresh= 2.912E-06 alpha_mix =  0.700 |ddv_scf|^2 =  5.082E-12

      iter #   5 total cpu time :     5.1 secs   av.it.:   9.0
      thresh= 2.254E-07 alpha_mix =  0.700 |ddv_scf|^2 =  4.431E-15

     End of self-consistent calculation

     Convergence has been achieved 

     Number of q in the star =    1
     List of q in the star:
          1   0.000000000   0.000000000   0.000000000

          Dielectric constant in cartesian axis 

          (      13.863925199       0.000000000       0.000000000 )
          (       0.000000000      13.863925199       0.000000000 )
          (      -0.000000000       0.000000000      13.863925199 )

          Effective charges (d Force / dE) in cartesian axis

           atom      1   Si 
      Ex  (       -0.03113       -0.00000       -0.00000 )
      Ey  (       -0.00000       -0.03113        0.00000 )
      Ez  (       -0.00000        0.00000       -0.03113 )
           atom      2   Si 
      Ex  (       -0.03113        0.00000        0.00000 )
      Ey  (        0.00000       -0.03113        0.00000 )
      Ez  (        0.00000       -0.00000       -0.03113 )

          Effective charges (d P / du) in cartesian axis 

           atom      1   Si 
      Px  (       -0.07237        0.00000        0.00000 )
      Py  (        0.00000       -0.07237        0.00000 )
      Pz  (        0.00000       -0.00000       -0.07237 )
           atom      2   Si 
      Px  (       -0.07237       -0.00000       -0.00000 )
      Py  (       -0.00000       -0.07237        0.00000 )
      Pz  (       -0.00000        0.00000       -0.07237 )

     Diagonalizing the dynamical matrix

     q = (    0.000000000   0.000000000   0.000000000 ) 

 **************************************************************************
     freq (    1) =       1.947254 [THz] =      64.953407 [cm-1]
     freq (    2) =       1.947254 [THz] =      64.953407 [cm-1]
     freq (    3) =       1.947254 [THz] =      64.953407 [cm-1]
     freq (    4) =      15.027320 [THz] =     501.257445 [cm-1]
     freq (    5) =      15.027320 [THz] =     501.257445 [cm-1]
     freq (    6) =      15.027320 [THz] =     501.257445 [cm-1]
 **************************************************************************

     Mode symmetry, O_h (m-3m)  point group:

     freq (  1 -  3) =         65.0  [cm-1]   --> T_1u G_15  G_4- I  
     freq (  4 -  6) =        501.3  [cm-1]   --> T_2g G_25' G_5+ R  

     Calculation of q =   -0.2500000   0.2500000  -0.2500000

   Info: using nr1, nr2, nr3 values from input

   Info: using nr1, nr2, nr3 values from input

     Parallelization info
     --------------------
     sticks:   dense  smooth     PW     G-vecs:    dense   smooth      PW
     Min          63      63     24                  684      684     161
     Max          64      64     25                  688      688     162
     Sum         253     253     97                 2741     2741     645



     bravais-lattice index     =            2
     lattice parameter (alat)  =      10.3300  a.u.
     unit-cell volume          =     275.5757 (a.u.)^3
     number of atoms/cell      =            2
     number of atomic types    =            1
     number of electrons       =         8.00
     number of Kohn-Sham states=            4
     kinetic-energy cutoff     =      18.0000  Ry
     charge density cutoff     =      72.0000  Ry
     Exchange-correlation      = SLA  PW   PBE  PBE ( 1  4  3  4 0 0)

     celldm(1)=  10.330000  celldm(2)=   0.000000  celldm(3)=   0.000000
     celldm(4)=   0.000000  celldm(5)=   0.000000  celldm(6)=   0.000000

     crystal axes: (cart. coord. in units of alat)
               a(1) = (  -0.500000   0.000000   0.500000 )  
               a(2) = (   0.000000   0.500000   0.500000 )  
               a(3) = (  -0.500000   0.500000   0.000000 )  

     reciprocal axes: (cart. coord. in units 2 pi/alat)
               b(1) = ( -1.000000 -1.000000  1.000000 )  
               b(2) = (  1.000000  1.000000  1.000000 )  
               b(3) = ( -1.000000  1.000000 -1.000000 )  


     PseudoPot. # 1 for Si read from file:
     /home/max/quantum_espresso/qe-6.1/pseudo/si_pbe_v1.uspp.F.UPF.txt
     MD5 check sum: a056efeee980c13900f22a371efd63c1
     Pseudo is Ultrasoft + core correction, Zval =  4.0
     Generated by new atomic code, or converted to UPF format
     Using radial grid of  899 points,  6 beta functions with: 
                l(1) =   0
                l(2) =   0
                l(3) =   1
                l(4) =   1
                l(5) =   2
                l(6) =   2
     Q(r) pseudized with  8 coefficients,  rinner =    0.900   0.900   0.900
                                                       0.900   0.900

     atomic species   valence    mass     pseudopotential
        Si             4.00    28.08600     Si( 1.00)

     48 Sym. Ops., with inversion, found



   Cartesian axes

     site n.     atom                  positions (alat units)
         1           Si  tau(   1) = (   0.0000000   0.0000000   0.0000000  )
         2           Si  tau(   2) = (   0.2500000   0.2500000   0.2500000  )

     number of k points=   120

     Number of k-points >= 100: set verbosity='high' to print them.

     Dense  grid:     2741 G-vectors     FFT dimensions: (  20,  20,  20)

     Estimated max dynamical RAM per process >       0.33MB

     Estimated total allocated dynamical RAM >       1.30MB

     Check: negative/imaginary core charge=   -0.000005    0.000000

     The potential is recalculated from file :
     ./_ph0/silicon.10.330.save/charge-density.dat

     Starting wfc are    8 atomic wfcs

     Band Structure Calculation
     Davidson diagonalization with overlap

     ethr =  1.25E-10,  avg # of iterations = 11.7

     total cpu time spent up to now is        0.9 secs

     End of band structure calculation

     Number of k-points >= 100: set verbosity='high' to print the bands.

     highest occupied level (ev):     5.7103

     Writing output data file silicon.10.330.save

                                                                                

     bravais-lattice index     =            2
     lattice parameter (alat)  =      10.3300  a.u.
     unit-cell volume          =     275.5757 (a.u.)^3
     number of atoms/cell      =            2
     number of atomic types    =            1
     kinetic-energy cut-off    =      18.0000  Ry
     charge density cut-off    =      72.0000  Ry
     convergence threshold     =      1.0E-12
     beta                      =       0.7000
     number of iterations used =            4
     Exchange-correlation      = SLA  PW   PBE  PBE ( 1  4  3  4 0 0)


     celldm(1)=   10.33000  celldm(2)=    0.00000  celldm(3)=    0.00000
     celldm(4)=    0.00000  celldm(5)=    0.00000  celldm(6)=    0.00000

     crystal axes: (cart. coord. in units of alat)
               a(1) = ( -0.5000  0.0000  0.5000 )  
               a(2) = (  0.0000  0.5000  0.5000 )  
               a(3) = ( -0.5000  0.5000  0.0000 )  

     reciprocal axes: (cart. coord. in units 2 pi/alat)
               b(1) = ( -1.0000 -1.0000  1.0000 )  
               b(2) = (  1.0000  1.0000  1.0000 )  
               b(3) = ( -1.0000  1.0000 -1.0000 )  


     Atoms inside the unit cell: 

     Cartesian axes

     site n.  atom      mass           positions (alat units)
        1     Si  28.0860   tau(    1) = (    0.00000    0.00000    0.00000  )
        2     Si  28.0860   tau(    2) = (    0.25000    0.25000    0.25000  )

     Computing dynamical matrix for 
                    q = (  -0.2500000   0.2500000  -0.2500000 )

      6 Sym.Ops. (no q -> -q+G )


     G cutoff =  194.6137  (    685 G-vectors)     FFT grid: ( 20, 20, 20)
     number of k points=   120

     PseudoPot. # 1 for Si read from file:
     /home/max/quantum_espresso/qe-6.1/pseudo/si_pbe_v1.uspp.F.UPF.txt
     MD5 check sum: a056efeee980c13900f22a371efd63c1
     Pseudo is Ultrasoft + core correction, Zval =  4.0
     Generated by new atomic code, or converted to UPF format
     Using radial grid of  899 points,  6 beta functions with: 
                l(1) =   0
                l(2) =   0
                l(3) =   1
                l(4) =   1
                l(5) =   2
                l(6) =   2
     Q(r) pseudized with  8 coefficients,  rinner =    0.900   0.900   0.900
                                                       0.900   0.900

     Mode symmetry, C_3v (3m)   point group:


     Atomic displacements:
     There are   4 irreducible representations

     Representation     1      1 modes -A_1  L_1  To be done

     Representation     2      1 modes -A_1  L_1  To be done

     Representation     3      2 modes -E    L_3  To be done

     Representation     4      2 modes -E    L_3  To be done



     Alpha used in Ewald sum =   0.7000
     PHONON       :     6.02s CPU         6.77s WALL



     Representation #  1 mode #   1

     Self-consistent Calculation

      iter #   1 total cpu time :     7.1 secs   av.it.:   5.5
      thresh= 1.000E-02 alpha_mix =  0.700 |ddv_scf|^2 =  2.473E-03

      iter #   2 total cpu time :     7.4 secs   av.it.:   7.5
      thresh= 4.973E-03 alpha_mix =  0.700 |ddv_scf|^2 =  3.731E-02

      iter #   3 total cpu time :     7.6 secs   av.it.:   6.3
      thresh= 1.000E-02 alpha_mix =  0.700 |ddv_scf|^2 =  1.712E-06

      iter #   4 total cpu time :     8.0 secs   av.it.:   8.2
      thresh= 1.309E-04 alpha_mix =  0.700 |ddv_scf|^2 =  1.143E-07

      iter #   5 total cpu time :     8.3 secs   av.it.:   8.1
      thresh= 3.380E-05 alpha_mix =  0.700 |ddv_scf|^2 =  4.408E-09

      iter #   6 total cpu time :     8.9 secs   av.it.:   8.0
      thresh= 6.640E-06 alpha_mix =  0.700 |ddv_scf|^2 =  5.036E-09

      iter #   7 total cpu time :     9.2 secs   av.it.:   6.0
      thresh= 7.097E-06 alpha_mix =  0.700 |ddv_scf|^2 =  3.984E-10

      iter #   8 total cpu time :     9.5 secs   av.it.:   7.3
      thresh= 1.996E-06 alpha_mix =  0.700 |ddv_scf|^2 =  3.774E-12

      iter #   9 total cpu time :     9.8 secs   av.it.:   7.2
      thresh= 1.943E-07 alpha_mix =  0.700 |ddv_scf|^2 =  1.376E-13

     End of self-consistent calculation

     Convergence has been achieved 


     Representation #  2 mode #   2

     Self-consistent Calculation

      iter #   1 total cpu time :    10.0 secs   av.it.:   5.5
      thresh= 1.000E-02 alpha_mix =  0.700 |ddv_scf|^2 =  2.473E-03

      iter #   2 total cpu time :    10.3 secs   av.it.:   7.5
      thresh= 4.973E-03 alpha_mix =  0.700 |ddv_scf|^2 =  3.731E-02

      iter #   3 total cpu time :    10.9 secs   av.it.:   6.3
      thresh= 1.000E-02 alpha_mix =  0.700 |ddv_scf|^2 =  1.712E-06

      iter #   4 total cpu time :    11.2 secs   av.it.:   8.2
      thresh= 1.309E-04 alpha_mix =  0.700 |ddv_scf|^2 =  1.143E-07

      iter #   5 total cpu time :    11.5 secs   av.it.:   8.1
      thresh= 3.380E-05 alpha_mix =  0.700 |ddv_scf|^2 =  4.408E-09

      iter #   6 total cpu time :    11.8 secs   av.it.:   8.0
      thresh= 6.640E-06 alpha_mix =  0.700 |ddv_scf|^2 =  5.036E-09

      iter #   7 total cpu time :    12.1 secs   av.it.:   6.0
      thresh= 7.097E-06 alpha_mix =  0.700 |ddv_scf|^2 =  3.984E-10

      iter #   8 total cpu time :    12.4 secs   av.it.:   7.3
      thresh= 1.996E-06 alpha_mix =  0.700 |ddv_scf|^2 =  3.774E-12

      iter #   9 total cpu time :    13.0 secs   av.it.:   7.2
      thresh= 1.943E-07 alpha_mix =  0.700 |ddv_scf|^2 =  1.376E-13

     End of self-consistent calculation

     Convergence has been achieved 


     Representation #  3 modes #   3  4

     Self-consistent Calculation

      iter #   1 total cpu time :    13.5 secs   av.it.:   4.9
      thresh= 1.000E-02 alpha_mix =  0.700 |ddv_scf|^2 =  5.560E-07

      iter #   2 total cpu time :    14.1 secs   av.it.:   9.5
      thresh= 7.457E-05 alpha_mix =  0.700 |ddv_scf|^2 =  4.104E-08

      iter #   3 total cpu time :    14.9 secs   av.it.:   9.2
      thresh= 2.026E-05 alpha_mix =  0.700 |ddv_scf|^2 =  3.524E-09

      iter #   4 total cpu time :    15.6 secs   av.it.:   9.0
      thresh= 5.936E-06 alpha_mix =  0.700 |ddv_scf|^2 =  1.084E-11

      iter #   5 total cpu time :    16.2 secs   av.it.:   9.2
      thresh= 3.292E-07 alpha_mix =  0.700 |ddv_scf|^2 =  4.939E-13

     End of self-consistent calculation

     Convergence has been achieved 


     Representation #  4 modes #   5  6

     Self-consistent Calculation

      iter #   1 total cpu time :    17.1 secs   av.it.:   5.0
      thresh= 1.000E-02 alpha_mix =  0.700 |ddv_scf|^2 =  5.559E-07

      iter #   2 total cpu time :    17.7 secs   av.it.:   9.7
      thresh= 7.456E-05 alpha_mix =  0.700 |ddv_scf|^2 =  4.101E-08

      iter #   3 total cpu time :    18.4 secs   av.it.:   9.4
      thresh= 2.025E-05 alpha_mix =  0.700 |ddv_scf|^2 =  3.521E-09

      iter #   4 total cpu time :    19.4 secs   av.it.:   9.1
      thresh= 5.934E-06 alpha_mix =  0.700 |ddv_scf|^2 =  1.084E-11

      iter #   5 total cpu time :    20.0 secs   av.it.:   9.2
      thresh= 3.293E-07 alpha_mix =  0.700 |ddv_scf|^2 =  4.941E-13

     End of self-consistent calculation

     Convergence has been achieved 

     Number of q in the star =    8
     List of q in the star:
          1  -0.250000000   0.250000000  -0.250000000
          2   0.250000000  -0.250000000  -0.250000000
          3   0.250000000  -0.250000000   0.250000000
          4   0.250000000   0.250000000   0.250000000
          5  -0.250000000  -0.250000000  -0.250000000
          6  -0.250000000  -0.250000000   0.250000000
          7  -0.250000000   0.250000000   0.250000000
          8   0.250000000   0.250000000  -0.250000000

     Diagonalizing the dynamical matrix

     q = (   -0.250000000   0.250000000  -0.250000000 ) 

 **************************************************************************
     freq (    1) =       3.389993 [THz] =     113.077983 [cm-1]
     freq (    2) =       3.389993 [THz] =     113.077983 [cm-1]
     freq (    3) =       6.941963 [THz] =     231.558945 [cm-1]
     freq (    4) =      14.101059 [THz] =     470.360696 [cm-1]
     freq (    5) =      14.414365 [THz] =     480.811452 [cm-1]
     freq (    6) =      14.414365 [THz] =     480.811452 [cm-1]
 **************************************************************************

     Mode symmetry, C_3v (3m)   point group:

     freq (  1 -  2) =        113.1  [cm-1]   --> E    L_3           
     freq (  3 -  3) =        231.6  [cm-1]   --> A_1  L_1           
     freq (  4 -  4) =        470.4  [cm-1]   --> A_1  L_1           
     freq (  5 -  6) =        480.8  [cm-1]   --> E    L_3           

     Calculation of q =    0.5000000  -0.5000000   0.5000000

   Info: using nr1, nr2, nr3 values from input

   Info: using nr1, nr2, nr3 values from input

     Parallelization info
     --------------------
     sticks:   dense  smooth     PW     G-vecs:    dense   smooth      PW
     Min          63      63     27                  684      684     186
     Max          64      64     28                  688      688     189
     Sum         253     253    109                 2741     2741     749



     bravais-lattice index     =            2
     lattice parameter (alat)  =      10.3300  a.u.
     unit-cell volume          =     275.5757 (a.u.)^3
     number of atoms/cell      =            2
     number of atomic types    =            1
     number of electrons       =         8.00
     number of Kohn-Sham states=            4
     kinetic-energy cutoff     =      18.0000  Ry
     charge density cutoff     =      72.0000  Ry
     Exchange-correlation      = SLA  PW   PBE  PBE ( 1  4  3  4 0 0)

     celldm(1)=  10.330000  celldm(2)=   0.000000  celldm(3)=   0.000000
     celldm(4)=   0.000000  celldm(5)=   0.000000  celldm(6)=   0.000000

     crystal axes: (cart. coord. in units of alat)
               a(1) = (  -0.500000   0.000000   0.500000 )  
               a(2) = (   0.000000   0.500000   0.500000 )  
               a(3) = (  -0.500000   0.500000   0.000000 )  

     reciprocal axes: (cart. coord. in units 2 pi/alat)
               b(1) = ( -1.000000 -1.000000  1.000000 )  
               b(2) = (  1.000000  1.000000  1.000000 )  
               b(3) = ( -1.000000  1.000000 -1.000000 )  


     PseudoPot. # 1 for Si read from file:
     /home/max/quantum_espresso/qe-6.1/pseudo/si_pbe_v1.uspp.F.UPF.txt
     MD5 check sum: a056efeee980c13900f22a371efd63c1
     Pseudo is Ultrasoft + core correction, Zval =  4.0
     Generated by new atomic code, or converted to UPF format
     Using radial grid of  899 points,  6 beta functions with: 
                l(1) =   0
                l(2) =   0
                l(3) =   1
                l(4) =   1
                l(5) =   2
                l(6) =   2
     Q(r) pseudized with  8 coefficients,  rinner =    0.900   0.900   0.900
                                                       0.900   0.900

     atomic species   valence    mass     pseudopotential
        Si             4.00    28.08600     Si( 1.00)

     48 Sym. Ops., with inversion, found



   Cartesian axes

     site n.     atom                  positions (alat units)
         1           Si  tau(   1) = (   0.0000000   0.0000000   0.0000000  )
         2           Si  tau(   2) = (   0.2500000   0.2500000   0.2500000  )

     number of k points=    60
                       cart. coord. in units 2pi/alat
        k(    1) = (  -0.1250000   0.1250000   0.1250000), wk =   0.0468750
        k(    2) = (   0.3750000  -0.3750000   0.6250000), wk =   0.0000000
        k(    3) = (  -0.3750000   0.3750000  -0.1250000), wk =   0.0468750
        k(    4) = (   0.1250000  -0.1250000   0.3750000), wk =   0.0000000
        k(    5) = (   0.3750000  -0.3750000   0.6250000), wk =   0.0468750
        k(    6) = (   0.8750000  -0.8750000   1.1250000), wk =   0.0000000
        k(    7) = (   0.1250000  -0.1250000   0.3750000), wk =   0.0468750
        k(    8) = (   0.6250000  -0.6250000   0.8750000), wk =   0.0000000
        k(    9) = (  -0.1250000   0.6250000   0.1250000), wk =   0.0937500
        k(   10) = (   0.3750000   0.1250000   0.6250000), wk =   0.0000000
        k(   11) = (   0.6250000  -0.1250000   0.8750000), wk =   0.0937500
        k(   12) = (   1.1250000  -0.6250000   1.3750000), wk =   0.0000000
        k(   13) = (   0.3750000   0.1250000   0.6250000), wk =   0.0937500
        k(   14) = (   0.8750000  -0.3750000   1.1250000), wk =   0.0000000
        k(   15) = (  -0.1250000  -0.8750000   0.1250000), wk =   0.0937500
        k(   16) = (   0.3750000  -1.3750000   0.6250000), wk =   0.0000000
        k(   17) = (  -0.3750000   0.3750000   0.3750000), wk =   0.0468750
        k(   18) = (   0.1250000  -0.1250000   0.8750000), wk =   0.0000000
        k(   19) = (   0.3750000  -0.3750000   1.1250000), wk =   0.0468750
        k(   20) = (   0.8750000  -0.8750000   1.6250000), wk =   0.0000000
        k(   21) = (   0.1250000  -0.1250000   0.1250000), wk =   0.0156250
        k(   22) = (   0.6250000  -0.6250000   0.6250000), wk =   0.0000000
        k(   23) = (  -0.3750000  -0.3750000  -0.1250000), wk =   0.0937500
        k(   24) = (   0.1250000  -0.8750000   0.3750000), wk =   0.0000000
        k(   25) = (  -0.1250000  -0.3750000   0.3750000), wk =   0.0468750
        k(   26) = (   0.3750000  -0.8750000   0.8750000), wk =   0.0000000
        k(   27) = (   0.3750000   0.3750000   0.6250000), wk =   0.0937500
        k(   28) = (   0.8750000  -0.1250000   1.1250000), wk =   0.0000000
        k(   29) = (   0.6250000   0.3750000  -0.3750000), wk =   0.0468750
        k(   30) = (   1.1250000  -0.1250000   0.1250000), wk =   0.0000000
        k(   31) = (   0.1250000   0.1250000   0.3750000), wk =   0.0937500
        k(   32) = (   0.6250000  -0.3750000   0.8750000), wk =   0.0000000
        k(   33) = (   0.3750000   0.1250000  -0.1250000), wk =   0.0468750
        k(   34) = (   0.8750000  -0.3750000   0.3750000), wk =   0.0000000
        k(   35) = (  -0.1250000  -0.6250000  -0.1250000), wk =   0.0468750
        k(   36) = (   0.3750000  -1.1250000   0.3750000), wk =   0.0000000
        k(   37) = (   0.1250000  -0.6250000   0.1250000), wk =   0.0468750
        k(   38) = (   0.6250000  -1.1250000   0.6250000), wk =   0.0000000
        k(   39) = (   0.6250000   0.1250000   0.8750000), wk =   0.0937500
        k(   40) = (   1.1250000  -0.3750000   1.3750000), wk =   0.0000000
        k(   41) = (  -0.8750000   0.1250000   0.6250000), wk =   0.0937500
        k(   42) = (  -0.3750000  -0.3750000   1.1250000), wk =   0.0000000
        k(   43) = (   0.8750000   0.1250000  -0.6250000), wk =   0.0937500
        k(   44) = (   1.3750000  -0.3750000  -0.1250000), wk =   0.0000000
        k(   45) = (   0.3750000  -0.1250000   0.6250000), wk =   0.0937500
        k(   46) = (   0.8750000  -0.6250000   1.1250000), wk =   0.0000000
        k(   47) = (  -0.6250000  -0.1250000   0.3750000), wk =   0.0937500
        k(   48) = (  -0.1250000  -0.6250000   0.8750000), wk =   0.0000000
        k(   49) = (   0.6250000  -0.1250000  -0.3750000), wk =   0.0937500
        k(   50) = (   1.1250000  -0.6250000   0.1250000), wk =   0.0000000
        k(   51) = (  -0.1250000   0.8750000  -0.1250000), wk =   0.0468750
        k(   52) = (   0.3750000   0.3750000   0.3750000), wk =   0.0000000
        k(   53) = (   0.1250000   0.8750000   0.1250000), wk =   0.0468750
        k(   54) = (   0.6250000   0.3750000   0.6250000), wk =   0.0000000
        k(   55) = (   0.3750000  -0.3750000   0.3750000), wk =   0.0156250
        k(   56) = (   0.8750000  -0.8750000   0.8750000), wk =   0.0000000
        k(   57) = (   0.3750000   0.3750000   1.1250000), wk =   0.0937500
        k(   58) = (   0.8750000  -0.1250000   1.6250000), wk =   0.0000000
        k(   59) = (   1.1250000   0.3750000  -0.3750000), wk =   0.0468750
        k(   60) = (   1.6250000  -0.1250000   0.1250000), wk =   0.0000000

     Dense  grid:     2741 G-vectors     FFT dimensions: (  20,  20,  20)

     Estimated max dynamical RAM per process >       0.33MB

     Estimated total allocated dynamical RAM >       1.30MB

     Check: negative/imaginary core charge=   -0.000005    0.000000

     The potential is recalculated from file :
     ./_ph0/silicon.10.330.save/charge-density.dat

     Starting wfc are    8 atomic wfcs

     Band Structure Calculation
     Davidson diagonalization with overlap

     ethr =  1.25E-10,  avg # of iterations = 11.7

     total cpu time spent up to now is        1.8 secs

     End of band structure calculation

          k =-0.1250 0.1250 0.1250 (   338 PWs)   bands (ev):

    -5.6268   4.4016   5.7103   5.7103

          k = 0.3750-0.3750 0.6250 (   359 PWs)   bands (ev):

    -3.4653  -0.6670   3.7465   4.4575

          k =-0.3750 0.3750-0.1250 (   352 PWs)   bands (ev):

    -4.6021   1.4076   3.7277   5.2282

          k = 0.1250-0.1250 0.3750 (   349 PWs)   bands (ev):

    -5.1001   2.7830   4.7025   4.7670

          k = 0.3750-0.3750 0.6250 (   359 PWs)   bands (ev):

    -3.4653  -0.6670   3.7465   4.4575

          k = 0.8750-0.8750 1.1250 (   338 PWs)   bands (ev):

    -5.6268   4.4016   5.7103   5.7103

          k = 0.1250-0.1250 0.3750 (   349 PWs)   bands (ev):

    -5.1001   2.7830   4.7025   4.7670

          k = 0.6250-0.6250 0.8750 (   352 PWs)   bands (ev):

    -4.6021   1.4076   3.7277   5.2282

          k =-0.1250 0.6250 0.1250 (   349 PWs)   bands (ev):

    -4.0698   1.0704   3.3798   3.8285

          k = 0.3750 0.1250 0.6250 (   357 PWs)   bands (ev):

    -3.6556   0.1994   2.7396   4.1043

          k = 0.6250-0.1250 0.8750 (   359 PWs)   bands (ev):

    -2.4328  -0.8920   2.0302   3.1026

          k = 1.1250-0.6250 1.3750 (   352 PWs)   bands (ev):

    -4.6021   1.4076   3.7277   5.2282

          k = 0.3750 0.1250 0.6250 (   357 PWs)   bands (ev):

    -3.6556   0.1994   2.7396   4.1043

          k = 0.8750-0.3750 1.1250 (   349 PWs)   bands (ev):

    -4.0698   1.0704   3.3798   3.8285

          k =-0.1250-0.8750 0.1250 (   358 PWs)   bands (ev):

    -2.5996  -0.7950   2.6368   3.3616

          k = 0.3750-1.3750 0.6250 (   359 PWs)   bands (ev):

    -3.4653  -0.6670   3.7465   4.4575

          k =-0.3750 0.3750 0.3750 (   353 PWs)   bands (ev):

    -4.1706   0.1206   4.9217   4.9217

          k = 0.1250-0.1250 0.8750 (   358 PWs)   bands (ev):

    -2.5996  -0.7950   2.6368   3.3616

          k = 0.3750-0.3750 1.1250 (   361 PWs)   bands (ev):

    -2.9699  -0.5864   2.0874   4.1413

          k = 0.8750-0.8750 1.6250 (   349 PWs)   bands (ev):

    -4.0698   1.0704   3.3798   3.8285

          k = 0.1250-0.1250 0.1250 (   338 PWs)   bands (ev):

    -5.6268   4.4016   5.7103   5.7103

          k = 0.6250-0.6250 0.6250 (   353 PWs)   bands (ev):

    -4.1706   0.1206   4.9217   4.9217

          k =-0.3750-0.3750-0.1250 (   352 PWs)   bands (ev):

    -4.6021   1.4076   3.7277   5.2282

          k = 0.1250-0.8750 0.3750 (   359 PWs)   bands (ev):

    -2.4328  -0.8920   2.0302   3.1026

          k =-0.1250-0.3750 0.3750 (   352 PWs)   bands (ev):

    -4.6021   1.4076   3.7277   5.2282

          k = 0.3750-0.8750 0.8750 (   349 PWs)   bands (ev):

    -4.0698   1.0704   3.3798   3.8285

          k = 0.3750 0.3750 0.6250 (   359 PWs)   bands (ev):

    -3.4653  -0.6670   3.7465   4.4575

          k = 0.8750-0.1250 1.1250 (   358 PWs)   bands (ev):

    -2.5996  -0.7950   2.6368   3.3616

          k = 0.6250 0.3750-0.3750 (   359 PWs)   bands (ev):

    -3.4653  -0.6670   3.7465   4.4575

          k = 1.1250-0.1250 0.1250 (   358 PWs)   bands (ev):

    -2.5996  -0.7950   2.6368   3.3616

          k = 0.1250 0.1250 0.3750 (   349 PWs)   bands (ev):

    -5.1001   2.7830   4.7025   4.7670

          k = 0.6250-0.3750 0.8750 (   357 PWs)   bands (ev):

    -3.6556   0.1994   2.7396   4.1043

          k = 0.3750 0.1250-0.1250 (   349 PWs)   bands (ev):

    -5.1001   2.7830   4.7025   4.7670

          k = 0.8750-0.3750 0.3750 (   361 PWs)   bands (ev):

    -2.9699  -0.5864   2.0874   4.1413

          k =-0.1250-0.6250-0.1250 (   349 PWs)   bands (ev):

    -4.0698   1.0704   3.3798   3.8285

          k = 0.3750-1.1250 0.3750 (   361 PWs)   bands (ev):

    -2.9699  -0.5864   2.0874   4.1413

          k = 0.1250-0.6250 0.1250 (   349 PWs)   bands (ev):

    -4.0698   1.0704   3.3798   3.8285

          k = 0.6250-1.1250 0.6250 (   352 PWs)   bands (ev):

    -4.6021   1.4076   3.7277   5.2282

          k = 0.6250 0.1250 0.8750 (   359 PWs)   bands (ev):

    -2.4328  -0.8920   2.0302   3.1026

          k = 1.1250-0.3750 1.3750 (   357 PWs)   bands (ev):

    -3.6556   0.1994   2.7396   4.1043

          k =-0.8750 0.1250 0.6250 (   359 PWs)   bands (ev):

    -2.4328  -0.8920   2.0302   3.1026

          k =-0.3750-0.3750 1.1250 (   361 PWs)   bands (ev):

    -2.9699  -0.5864   2.0874   4.1413

          k = 0.8750 0.1250-0.6250 (   359 PWs)   bands (ev):

    -2.4328  -0.8920   2.0302   3.1026

          k = 1.3750-0.3750-0.1250 (   357 PWs)   bands (ev):

    -3.6556   0.1994   2.7396   4.1043

          k = 0.3750-0.1250 0.6250 (   357 PWs)   bands (ev):

    -3.6556   0.1994   2.7396   4.1043

          k = 0.8750-0.6250 1.1250 (   349 PWs)   bands (ev):

    -5.1001   2.7830   4.7025   4.7670

          k =-0.6250-0.1250 0.3750 (   357 PWs)   bands (ev):

    -3.6556   0.1994   2.7396   4.1043

          k =-0.1250-0.6250 0.8750 (   359 PWs)   bands (ev):

    -2.4328  -0.8920   2.0302   3.1026

          k = 0.6250-0.1250-0.3750 (   357 PWs)   bands (ev):

    -3.6556   0.1994   2.7396   4.1043

          k = 1.1250-0.6250 0.1250 (   359 PWs)   bands (ev):

    -2.4328  -0.8920   2.0302   3.1026

          k =-0.1250 0.8750-0.1250 (   358 PWs)   bands (ev):

    -2.5996  -0.7950   2.6368   3.3616

          k = 0.3750 0.3750 0.3750 (   353 PWs)   bands (ev):

    -4.1706   0.1206   4.9217   4.9217

          k = 0.1250 0.8750 0.1250 (   358 PWs)   bands (ev):

    -2.5996  -0.7950   2.6368   3.3616

          k = 0.6250 0.3750 0.6250 (   359 PWs)   bands (ev):

    -3.4653  -0.6670   3.7465   4.4575

          k = 0.3750-0.3750 0.3750 (   353 PWs)   bands (ev):

    -4.1706   0.1206   4.9217   4.9217

          k = 0.8750-0.8750 0.8750 (   338 PWs)   bands (ev):

    -5.6268   4.4016   5.7103   5.7103

          k = 0.3750 0.3750 1.1250 (   361 PWs)   bands (ev):

    -2.9699  -0.5864   2.0874   4.1413

          k = 0.8750-0.1250 1.6250 (   359 PWs)   bands (ev):

    -2.4328  -0.8920   2.0302   3.1026

          k = 1.1250 0.3750-0.3750 (   361 PWs)   bands (ev):

    -2.9699  -0.5864   2.0874   4.1413

          k = 1.6250-0.1250 0.1250 (   349 PWs)   bands (ev):

    -5.1001   2.7830   4.7025   4.7670

     highest occupied level (ev):     5.7103

     Writing output data file silicon.10.330.save

                                                                                

     bravais-lattice index     =            2
     lattice parameter (alat)  =      10.3300  a.u.
     unit-cell volume          =     275.5757 (a.u.)^3
     number of atoms/cell      =            2
     number of atomic types    =            1
     kinetic-energy cut-off    =      18.0000  Ry
     charge density cut-off    =      72.0000  Ry
     convergence threshold     =      1.0E-12
     beta                      =       0.7000
     number of iterations used =            4
     Exchange-correlation      = SLA  PW   PBE  PBE ( 1  4  3  4 0 0)


     celldm(1)=   10.33000  celldm(2)=    0.00000  celldm(3)=    0.00000
     celldm(4)=    0.00000  celldm(5)=    0.00000  celldm(6)=    0.00000

     crystal axes: (cart. coord. in units of alat)
               a(1) = ( -0.5000  0.0000  0.5000 )  
               a(2) = (  0.0000  0.5000  0.5000 )  
               a(3) = ( -0.5000  0.5000  0.0000 )  

     reciprocal axes: (cart. coord. in units 2 pi/alat)
               b(1) = ( -1.0000 -1.0000  1.0000 )  
               b(2) = (  1.0000  1.0000  1.0000 )  
               b(3) = ( -1.0000  1.0000 -1.0000 )  


     Atoms inside the unit cell: 

     Cartesian axes

     site n.  atom      mass           positions (alat units)
        1     Si  28.0860   tau(    1) = (    0.00000    0.00000    0.00000  )
        2     Si  28.0860   tau(    2) = (    0.25000    0.25000    0.25000  )

     Computing dynamical matrix for 
                    q = (   0.5000000  -0.5000000   0.5000000 )

     13 Sym.Ops. (with q -> -q+G )


     G cutoff =  194.6137  (    685 G-vectors)     FFT grid: ( 20, 20, 20)
     number of k points=    60

     PseudoPot. # 1 for Si read from file:
     /home/max/quantum_espresso/qe-6.1/pseudo/si_pbe_v1.uspp.F.UPF.txt
     MD5 check sum: a056efeee980c13900f22a371efd63c1
     Pseudo is Ultrasoft + core correction, Zval =  4.0
     Generated by new atomic code, or converted to UPF format
     Using radial grid of  899 points,  6 beta functions with: 
                l(1) =   0
                l(2) =   0
                l(3) =   1
                l(4) =   1
                l(5) =   2
                l(6) =   2
     Q(r) pseudized with  8 coefficients,  rinner =    0.900   0.900   0.900
                                                       0.900   0.900


     Atomic displacements:
     There are   4 irreducible representations

     Representation     1      1 modes -  To be done

     Representation     2      1 modes -  To be done

     Representation     3      2 modes -  To be done

     Representation     4      2 modes -  To be done



     Alpha used in Ewald sum =   0.7000
     PHONON       :    18.45s CPU        21.15s WALL



     Representation #  1 mode #   1

     Self-consistent Calculation

      iter #   1 total cpu time :    21.3 secs   av.it.:   4.9
      thresh= 1.000E-02 alpha_mix =  0.700 |ddv_scf|^2 =  2.484E-05

      iter #   2 total cpu time :    21.4 secs   av.it.:   8.3
      thresh= 4.984E-04 alpha_mix =  0.700 |ddv_scf|^2 =  2.211E-05

      iter #   3 total cpu time :    21.6 secs   av.it.:   7.5
      thresh= 4.703E-04 alpha_mix =  0.700 |ddv_scf|^2 =  4.200E-08

      iter #   4 total cpu time :    21.8 secs   av.it.:   7.5
      thresh= 2.049E-05 alpha_mix =  0.700 |ddv_scf|^2 =  1.425E-10

      iter #   5 total cpu time :    21.9 secs   av.it.:   7.9
      thresh= 1.194E-06 alpha_mix =  0.700 |ddv_scf|^2 =  3.590E-12

      iter #   6 total cpu time :    22.1 secs   av.it.:   7.9
      thresh= 1.895E-07 alpha_mix =  0.700 |ddv_scf|^2 =  5.544E-14

     End of self-consistent calculation

     Convergence has been achieved 


     Representation #  2 mode #   2

     Self-consistent Calculation

      iter #   1 total cpu time :    22.2 secs   av.it.:   5.6
      thresh= 1.000E-02 alpha_mix =  0.700 |ddv_scf|^2 =  3.451E-04

      iter #   2 total cpu time :    22.4 secs   av.it.:   8.3
      thresh= 1.858E-03 alpha_mix =  0.700 |ddv_scf|^2 =  1.064E-03

      iter #   3 total cpu time :    22.9 secs   av.it.:   7.1
      thresh= 3.261E-03 alpha_mix =  0.700 |ddv_scf|^2 =  1.137E-07

      iter #   4 total cpu time :    23.1 secs   av.it.:   8.2
      thresh= 3.372E-05 alpha_mix =  0.700 |ddv_scf|^2 =  7.305E-09

      iter #   5 total cpu time :    23.2 secs   av.it.:   8.5
      thresh= 8.547E-06 alpha_mix =  0.700 |ddv_scf|^2 =  1.301E-10

      iter #   6 total cpu time :    23.4 secs   av.it.:   8.3
      thresh= 1.141E-06 alpha_mix =  0.700 |ddv_scf|^2 =  2.073E-12

      iter #   7 total cpu time :    23.5 secs   av.it.:   7.8
      thresh= 1.440E-07 alpha_mix =  0.700 |ddv_scf|^2 =  3.166E-15

     End of self-consistent calculation

     Convergence has been achieved 


     Representation #  3 modes #   3  4

     Self-consistent Calculation

      iter #   1 total cpu time :    23.8 secs   av.it.:   4.7
      thresh= 1.000E-02 alpha_mix =  0.700 |ddv_scf|^2 =  3.035E-07

      iter #   2 total cpu time :    24.1 secs   av.it.:   9.1
      thresh= 5.509E-05 alpha_mix =  0.700 |ddv_scf|^2 =  2.504E-08

      iter #   3 total cpu time :    24.6 secs   av.it.:   8.4
      thresh= 1.582E-05 alpha_mix =  0.700 |ddv_scf|^2 =  4.941E-10

      iter #   4 total cpu time :    25.2 secs   av.it.:   8.9
      thresh= 2.223E-06 alpha_mix =  0.700 |ddv_scf|^2 =  6.205E-12

      iter #   5 total cpu time :    25.5 secs   av.it.:   8.7
      thresh= 2.491E-07 alpha_mix =  0.700 |ddv_scf|^2 =  3.216E-14

     End of self-consistent calculation

     Convergence has been achieved 


     Representation #  4 modes #   5  6

     Self-consistent Calculation

      iter #   1 total cpu time :    25.8 secs   av.it.:   5.0
      thresh= 1.000E-02 alpha_mix =  0.700 |ddv_scf|^2 =  9.794E-07

      iter #   2 total cpu time :    26.2 secs   av.it.:   9.5
      thresh= 9.896E-05 alpha_mix =  0.700 |ddv_scf|^2 =  7.663E-08

      iter #   3 total cpu time :    26.9 secs   av.it.:   9.3
      thresh= 2.768E-05 alpha_mix =  0.700 |ddv_scf|^2 =  4.911E-09

      iter #   4 total cpu time :    27.2 secs   av.it.:   8.5
      thresh= 7.008E-06 alpha_mix =  0.700 |ddv_scf|^2 =  6.602E-12

      iter #   5 total cpu time :    27.6 secs   av.it.:   8.8
      thresh= 2.569E-07 alpha_mix =  0.700 |ddv_scf|^2 =  2.296E-14

     End of self-consistent calculation

     Convergence has been achieved 

     Number of q in the star =    4
     List of q in the star:
          1   0.500000000  -0.500000000   0.500000000
          2   0.500000000   0.500000000   0.500000000
          3  -0.500000000   0.500000000   0.500000000
          4   0.500000000   0.500000000  -0.500000000

     Diagonalizing the dynamical matrix

     q = (    0.500000000  -0.500000000   0.500000000 ) 

 **************************************************************************
     freq (    1) =       4.549672 [THz] =     151.760721 [cm-1]
     freq (    2) =       4.549672 [THz] =     151.760721 [cm-1]
     freq (    3) =      11.551421 [THz] =     385.313936 [cm-1]
     freq (    4) =      12.150902 [THz] =     405.310453 [cm-1]
     freq (    5) =      14.429281 [THz] =     481.308995 [cm-1]
     freq (    6) =      14.429281 [THz] =     481.308995 [cm-1]
 **************************************************************************

     Calculation of q =    0.0000000   0.5000000   0.0000000

   Info: using nr1, nr2, nr3 values from input

   Info: using nr1, nr2, nr3 values from input

     Parallelization info
     --------------------
     sticks:   dense  smooth     PW     G-vecs:    dense   smooth      PW
     Min          63      63     27                  684      684     175
     Max          64      64     28                  688      688     176
     Sum         253     253    109                 2741     2741     701



     bravais-lattice index     =            2
     lattice parameter (alat)  =      10.3300  a.u.
     unit-cell volume          =     275.5757 (a.u.)^3
     number of atoms/cell      =            2
     number of atomic types    =            1
     number of electrons       =         8.00
     number of Kohn-Sham states=            4
     kinetic-energy cutoff     =      18.0000  Ry
     charge density cutoff     =      72.0000  Ry
     Exchange-correlation      = SLA  PW   PBE  PBE ( 1  4  3  4 0 0)

     celldm(1)=  10.330000  celldm(2)=   0.000000  celldm(3)=   0.000000
     celldm(4)=   0.000000  celldm(5)=   0.000000  celldm(6)=   0.000000

     crystal axes: (cart. coord. in units of alat)
               a(1) = (  -0.500000   0.000000   0.500000 )  
               a(2) = (   0.000000   0.500000   0.500000 )  
               a(3) = (  -0.500000   0.500000   0.000000 )  

     reciprocal axes: (cart. coord. in units 2 pi/alat)
               b(1) = ( -1.000000 -1.000000  1.000000 )  
               b(2) = (  1.000000  1.000000  1.000000 )  
               b(3) = ( -1.000000  1.000000 -1.000000 )  


     PseudoPot. # 1 for Si read from file:
     /home/max/quantum_espresso/qe-6.1/pseudo/si_pbe_v1.uspp.F.UPF.txt
     MD5 check sum: a056efeee980c13900f22a371efd63c1
     Pseudo is Ultrasoft + core correction, Zval =  4.0
     Generated by new atomic code, or converted to UPF format
     Using radial grid of  899 points,  6 beta functions with: 
                l(1) =   0
                l(2) =   0
                l(3) =   1
                l(4) =   1
                l(5) =   2
                l(6) =   2
     Q(r) pseudized with  8 coefficients,  rinner =    0.900   0.900   0.900
                                                       0.900   0.900

     atomic species   valence    mass     pseudopotential
        Si             4.00    28.08600     Si( 1.00)

     48 Sym. Ops., with inversion, found



   Cartesian axes

     site n.     atom                  positions (alat units)
         1           Si  tau(   1) = (   0.0000000   0.0000000   0.0000000  )
         2           Si  tau(   2) = (   0.2500000   0.2500000   0.2500000  )

     number of k points=    80
                       cart. coord. in units 2pi/alat
        k(    1) = (  -0.1250000   0.1250000   0.1250000), wk =   0.0312500
        k(    2) = (  -0.1250000   0.6250000   0.1250000), wk =   0.0000000
        k(    3) = (  -0.3750000   0.3750000  -0.1250000), wk =   0.0625000
        k(    4) = (  -0.3750000   0.8750000  -0.1250000), wk =   0.0000000
        k(    5) = (   0.3750000  -0.3750000   0.6250000), wk =   0.0625000
        k(    6) = (   0.3750000   0.1250000   0.6250000), wk =   0.0000000
        k(    7) = (   0.1250000  -0.1250000   0.3750000), wk =   0.0625000
        k(    8) = (   0.1250000   0.3750000   0.3750000), wk =   0.0000000
        k(    9) = (  -0.1250000   0.6250000   0.1250000), wk =   0.0312500
        k(   10) = (  -0.1250000   1.1250000   0.1250000), wk =   0.0000000
        k(   11) = (   0.6250000  -0.1250000   0.8750000), wk =   0.0625000
        k(   12) = (   0.6250000   0.3750000   0.8750000), wk =   0.0000000
        k(   13) = (   0.3750000   0.1250000   0.6250000), wk =   0.0625000
        k(   14) = (   0.3750000   0.6250000   0.6250000), wk =   0.0000000
        k(   15) = (  -0.1250000  -0.8750000   0.1250000), wk =   0.0312500
        k(   16) = (  -0.1250000  -0.3750000   0.1250000), wk =   0.0000000
        k(   17) = (  -0.3750000   0.3750000   0.3750000), wk =   0.0312500
        k(   18) = (  -0.3750000   0.8750000   0.3750000), wk =   0.0000000
        k(   19) = (   0.3750000  -0.3750000   1.1250000), wk =   0.0625000
        k(   20) = (   0.3750000   0.1250000   1.1250000), wk =   0.0000000
        k(   21) = (  -0.1250000  -0.1250000   0.1250000), wk =   0.0312500
        k(   22) = (  -0.1250000   0.3750000   0.1250000), wk =   0.0000000
        k(   23) = (   0.1250000  -0.3750000   0.3750000), wk =   0.0625000
        k(   24) = (   0.1250000   0.1250000   0.3750000), wk =   0.0000000
        k(   25) = (   0.3750000  -0.1250000   0.3750000), wk =   0.0312500
        k(   26) = (   0.3750000   0.3750000   0.3750000), wk =   0.0000000
        k(   27) = (   0.3750000   0.1250000   0.3750000), wk =   0.0312500
        k(   28) = (   0.3750000   0.6250000   0.3750000), wk =   0.0000000
        k(   29) = (  -0.6250000   0.3750000  -0.3750000), wk =   0.0625000
        k(   30) = (  -0.6250000   0.8750000  -0.3750000), wk =   0.0000000
        k(   31) = (  -0.3750000   0.6250000  -0.3750000), wk =   0.0312500
        k(   32) = (  -0.3750000   1.1250000  -0.3750000), wk =   0.0000000
        k(   33) = (  -0.3750000  -0.6250000  -0.3750000), wk =   0.0312500
        k(   34) = (  -0.3750000  -0.1250000  -0.3750000), wk =   0.0000000
        k(   35) = (  -0.3750000   0.1250000  -0.1250000), wk =   0.0625000
        k(   36) = (  -0.3750000   0.6250000  -0.1250000), wk =   0.0000000
        k(   37) = (  -0.1250000   0.3750000  -0.1250000), wk =   0.0312500
        k(   38) = (  -0.1250000   0.8750000  -0.1250000), wk =   0.0000000
        k(   39) = (  -0.1250000  -0.3750000  -0.1250000), wk =   0.0312500
        k(   40) = (  -0.1250000   0.1250000  -0.1250000), wk =   0.0000000
        k(   41) = (  -0.1250000  -0.6250000   0.1250000), wk =   0.0312500
        k(   42) = (  -0.1250000  -0.1250000   0.1250000), wk =   0.0000000
        k(   43) = (   0.6250000  -0.1250000  -0.1250000), wk =   0.0625000
        k(   44) = (   0.6250000   0.3750000  -0.1250000), wk =   0.0000000
        k(   45) = (   0.6250000   0.1250000   0.1250000), wk =   0.0625000
        k(   46) = (   0.6250000   0.6250000   0.1250000), wk =   0.0000000
        k(   47) = (  -0.8750000   0.1250000  -0.6250000), wk =   0.0625000
        k(   48) = (  -0.8750000   0.6250000  -0.6250000), wk =   0.0000000
        k(   49) = (  -0.1250000   0.6250000  -0.8750000), wk =   0.0625000
        k(   50) = (  -0.1250000   1.1250000  -0.8750000), wk =   0.0000000
        k(   51) = (  -0.1250000   0.8750000  -0.6250000), wk =   0.0625000
        k(   52) = (  -0.1250000   1.3750000  -0.6250000), wk =   0.0000000
        k(   53) = (  -0.1250000  -0.8750000  -0.6250000), wk =   0.0625000
        k(   54) = (  -0.1250000  -0.3750000  -0.6250000), wk =   0.0000000
        k(   55) = (   0.8750000  -0.6250000   0.1250000), wk =   0.0625000
        k(   56) = (   0.8750000  -0.1250000   0.1250000), wk =   0.0000000
        k(   57) = (  -0.6250000  -0.1250000  -0.3750000), wk =   0.0625000
        k(   58) = (  -0.6250000   0.3750000  -0.3750000), wk =   0.0000000
        k(   59) = (   0.1250000   0.3750000  -0.6250000), wk =   0.0625000
        k(   60) = (   0.1250000   0.8750000  -0.6250000), wk =   0.0000000
        k(   61) = (   0.1250000   0.6250000  -0.3750000), wk =   0.0625000
        k(   62) = (   0.1250000   1.1250000  -0.3750000), wk =   0.0000000
        k(   63) = (   0.1250000  -0.6250000  -0.3750000), wk =   0.0625000
        k(   64) = (   0.1250000  -0.1250000  -0.3750000), wk =   0.0000000
        k(   65) = (   0.6250000  -0.3750000  -0.1250000), wk =   0.0625000
        k(   66) = (   0.6250000   0.1250000  -0.1250000), wk =   0.0000000
        k(   67) = (  -0.1250000   0.8750000   0.1250000), wk =   0.0312500
        k(   68) = (  -0.1250000   1.3750000   0.1250000), wk =   0.0000000
        k(   69) = (  -0.8750000  -0.1250000  -0.1250000), wk =   0.0625000
        k(   70) = (  -0.8750000   0.3750000  -0.1250000), wk =   0.0000000
        k(   71) = (  -0.8750000   0.1250000   0.1250000), wk =   0.0625000
        k(   72) = (  -0.8750000   0.6250000   0.1250000), wk =   0.0000000
        k(   73) = (  -0.3750000  -0.3750000   0.3750000), wk =   0.0312500
        k(   74) = (  -0.3750000   0.1250000   0.3750000), wk =   0.0000000
        k(   75) = (  -1.1250000   0.3750000  -0.3750000), wk =   0.0625000
        k(   76) = (  -1.1250000   0.8750000  -0.3750000), wk =   0.0000000
        k(   77) = (  -0.3750000   1.1250000  -0.3750000), wk =   0.0312500
        k(   78) = (  -0.3750000   1.6250000  -0.3750000), wk =   0.0000000
        k(   79) = (  -0.3750000  -1.1250000  -0.3750000), wk =   0.0312500
        k(   80) = (  -0.3750000  -0.6250000  -0.3750000), wk =   0.0000000

     Dense  grid:     2741 G-vectors     FFT dimensions: (  20,  20,  20)

     Estimated max dynamical RAM per process >       0.33MB

     Estimated total allocated dynamical RAM >       1.30MB

     Check: negative/imaginary core charge=   -0.000005    0.000000

     The potential is recalculated from file :
     ./_ph0/silicon.10.330.save/charge-density.dat

     Starting wfc are    8 atomic wfcs

     Band Structure Calculation
     Davidson diagonalization with overlap

     ethr =  1.25E-10,  avg # of iterations = 11.7

     total cpu time spent up to now is        2.5 secs

     End of band structure calculation

          k =-0.1250 0.1250 0.1250 (   338 PWs)   bands (ev):

    -5.6268   4.4016   5.7103   5.7103

          k =-0.1250 0.6250 0.1250 (   349 PWs)   bands (ev):

    -4.0698   1.0704   3.3798   3.8285

          k =-0.3750 0.3750-0.1250 (   352 PWs)   bands (ev):

    -4.6021   1.4076   3.7277   5.2282

          k =-0.3750 0.8750-0.1250 (   359 PWs)   bands (ev):

    -2.4328  -0.8920   2.0302   3.1026

          k = 0.3750-0.3750 0.6250 (   359 PWs)   bands (ev):

    -3.4653  -0.6670   3.7465   4.4575

          k = 0.3750 0.1250 0.6250 (   357 PWs)   bands (ev):

    -3.6556   0.1994   2.7396   4.1043

          k = 0.1250-0.1250 0.3750 (   349 PWs)   bands (ev):

    -5.1001   2.7830   4.7025   4.7670

          k = 0.1250 0.3750 0.3750 (   352 PWs)   bands (ev):

    -4.6021   1.4076   3.7277   5.2282

          k =-0.1250 0.6250 0.1250 (   349 PWs)   bands (ev):

    -4.0698   1.0704   3.3798   3.8285

          k =-0.1250 1.1250 0.1250 (   358 PWs)   bands (ev):

    -2.5996  -0.7950   2.6368   3.3616

          k = 0.6250-0.1250 0.8750 (   359 PWs)   bands (ev):

    -2.4328  -0.8920   2.0302   3.1026

          k = 0.6250 0.3750 0.8750 (   357 PWs)   bands (ev):

    -3.6556   0.1994   2.7396   4.1043

          k = 0.3750 0.1250 0.6250 (   357 PWs)   bands (ev):

    -3.6556   0.1994   2.7396   4.1043

          k = 0.3750 0.6250 0.6250 (   359 PWs)   bands (ev):

    -3.4653  -0.6670   3.7465   4.4575

          k =-0.1250-0.8750 0.1250 (   358 PWs)   bands (ev):

    -2.5996  -0.7950   2.6368   3.3616

          k =-0.1250-0.3750 0.1250 (   349 PWs)   bands (ev):

    -5.1001   2.7830   4.7025   4.7670

          k =-0.3750 0.3750 0.3750 (   353 PWs)   bands (ev):

    -4.1706   0.1206   4.9217   4.9217

          k =-0.3750 0.8750 0.3750 (   361 PWs)   bands (ev):

    -2.9699  -0.5864   2.0874   4.1413

          k = 0.3750-0.3750 1.1250 (   361 PWs)   bands (ev):

    -2.9699  -0.5864   2.0874   4.1413

          k = 0.3750 0.1250 1.1250 (   359 PWs)   bands (ev):

    -2.4328  -0.8920   2.0302   3.1026

          k =-0.1250-0.1250 0.1250 (   338 PWs)   bands (ev):

    -5.6268   4.4016   5.7103   5.7103

          k =-0.1250 0.3750 0.1250 (   349 PWs)   bands (ev):

    -5.1001   2.7830   4.7025   4.7670

          k = 0.1250-0.3750 0.3750 (   352 PWs)   bands (ev):

    -4.6021   1.4076   3.7277   5.2282

          k = 0.1250 0.1250 0.3750 (   349 PWs)   bands (ev):

    -5.1001   2.7830   4.7025   4.7670

          k = 0.3750-0.1250 0.3750 (   352 PWs)   bands (ev):

    -4.6021   1.4076   3.7277   5.2282

          k = 0.3750 0.3750 0.3750 (   353 PWs)   bands (ev):

    -4.1706   0.1206   4.9217   4.9217

          k = 0.3750 0.1250 0.3750 (   352 PWs)   bands (ev):

    -4.6021   1.4076   3.7277   5.2282

          k = 0.3750 0.6250 0.3750 (   359 PWs)   bands (ev):

    -3.4653  -0.6670   3.7465   4.4575

          k =-0.6250 0.3750-0.3750 (   359 PWs)   bands (ev):

    -3.4653  -0.6670   3.7465   4.4575

          k =-0.6250 0.8750-0.3750 (   357 PWs)   bands (ev):

    -3.6556   0.1994   2.7396   4.1043

          k =-0.3750 0.6250-0.3750 (   359 PWs)   bands (ev):

    -3.4653  -0.6670   3.7465   4.4575

          k =-0.3750 1.1250-0.3750 (   361 PWs)   bands (ev):

    -2.9699  -0.5864   2.0874   4.1413

          k =-0.3750-0.6250-0.3750 (   359 PWs)   bands (ev):

    -3.4653  -0.6670   3.7465   4.4575

          k =-0.3750-0.1250-0.3750 (   352 PWs)   bands (ev):

    -4.6021   1.4076   3.7277   5.2282

          k =-0.3750 0.1250-0.1250 (   349 PWs)   bands (ev):

    -5.1001   2.7830   4.7025   4.7670

          k =-0.3750 0.6250-0.1250 (   357 PWs)   bands (ev):

    -3.6556   0.1994   2.7396   4.1043

          k =-0.1250 0.3750-0.1250 (   349 PWs)   bands (ev):

    -5.1001   2.7830   4.7025   4.7670

          k =-0.1250 0.8750-0.1250 (   358 PWs)   bands (ev):

    -2.5996  -0.7950   2.6368   3.3616

          k =-0.1250-0.3750-0.1250 (   349 PWs)   bands (ev):

    -5.1001   2.7830   4.7025   4.7670

          k =-0.1250 0.1250-0.1250 (   338 PWs)   bands (ev):

    -5.6268   4.4016   5.7103   5.7103

          k =-0.1250-0.6250 0.1250 (   349 PWs)   bands (ev):

    -4.0698   1.0704   3.3798   3.8285

          k =-0.1250-0.1250 0.1250 (   338 PWs)   bands (ev):

    -5.6268   4.4016   5.7103   5.7103

          k = 0.6250-0.1250-0.1250 (   349 PWs)   bands (ev):

    -4.0698   1.0704   3.3798   3.8285

          k = 0.6250 0.3750-0.1250 (   357 PWs)   bands (ev):

    -3.6556   0.1994   2.7396   4.1043

          k = 0.6250 0.1250 0.1250 (   349 PWs)   bands (ev):

    -4.0698   1.0704   3.3798   3.8285

          k = 0.6250 0.6250 0.1250 (   361 PWs)   bands (ev):

    -2.9699  -0.5864   2.0874   4.1413

          k =-0.8750 0.1250-0.6250 (   359 PWs)   bands (ev):

    -2.4328  -0.8920   2.0302   3.1026

          k =-0.8750 0.6250-0.6250 (   352 PWs)   bands (ev):

    -4.6021   1.4076   3.7277   5.2282

          k =-0.1250 0.6250-0.8750 (   359 PWs)   bands (ev):

    -2.4328  -0.8920   2.0302   3.1026

          k =-0.1250 1.1250-0.8750 (   358 PWs)   bands (ev):

    -2.5996  -0.7950   2.6368   3.3616

          k =-0.1250 0.8750-0.6250 (   359 PWs)   bands (ev):

    -2.4328  -0.8920   2.0302   3.1026

          k =-0.1250 1.3750-0.6250 (   361 PWs)   bands (ev):

    -2.9699  -0.5864   2.0874   4.1413

          k =-0.1250-0.8750-0.6250 (   359 PWs)   bands (ev):

    -2.4328  -0.8920   2.0302   3.1026

          k =-0.1250-0.3750-0.6250 (   357 PWs)   bands (ev):

    -3.6556   0.1994   2.7396   4.1043

          k = 0.8750-0.6250 0.1250 (   359 PWs)   bands (ev):

    -2.4328  -0.8920   2.0302   3.1026

          k = 0.8750-0.1250 0.1250 (   358 PWs)   bands (ev):

    -2.5996  -0.7950   2.6368   3.3616

          k =-0.6250-0.1250-0.3750 (   357 PWs)   bands (ev):

    -3.6556   0.1994   2.7396   4.1043

          k =-0.6250 0.3750-0.3750 (   359 PWs)   bands (ev):

    -3.4653  -0.6670   3.7465   4.4575

          k = 0.1250 0.3750-0.6250 (   357 PWs)   bands (ev):

    -3.6556   0.1994   2.7396   4.1043

          k = 0.1250 0.8750-0.6250 (   359 PWs)   bands (ev):

    -2.4328  -0.8920   2.0302   3.1026

          k = 0.1250 0.6250-0.3750 (   357 PWs)   bands (ev):

    -3.6556   0.1994   2.7396   4.1043

          k = 0.1250 1.1250-0.3750 (   359 PWs)   bands (ev):

    -2.4328  -0.8920   2.0302   3.1026

          k = 0.1250-0.6250-0.3750 (   357 PWs)   bands (ev):

    -3.6556   0.1994   2.7396   4.1043

          k = 0.1250-0.1250-0.3750 (   349 PWs)   bands (ev):

    -5.1001   2.7830   4.7025   4.7670

          k = 0.6250-0.3750-0.1250 (   357 PWs)   bands (ev):

    -3.6556   0.1994   2.7396   4.1043

          k = 0.6250 0.1250-0.1250 (   349 PWs)   bands (ev):

    -4.0698   1.0704   3.3798   3.8285

          k =-0.1250 0.8750 0.1250 (   358 PWs)   bands (ev):

    -2.5996  -0.7950   2.6368   3.3616

          k =-0.1250 1.3750 0.1250 (   349 PWs)   bands (ev):

    -4.0698   1.0704   3.3798   3.8285

          k =-0.8750-0.1250-0.1250 (   358 PWs)   bands (ev):

    -2.5996  -0.7950   2.6368   3.3616

          k =-0.8750 0.3750-0.1250 (   359 PWs)   bands (ev):

    -2.4328  -0.8920   2.0302   3.1026

          k =-0.8750 0.1250 0.1250 (   358 PWs)   bands (ev):

    -2.5996  -0.7950   2.6368   3.3616

          k =-0.8750 0.6250 0.1250 (   359 PWs)   bands (ev):

    -2.4328  -0.8920   2.0302   3.1026

          k =-0.3750-0.3750 0.3750 (   353 PWs)   bands (ev):

    -4.1706   0.1206   4.9217   4.9217

          k =-0.3750 0.1250 0.3750 (   352 PWs)   bands (ev):

    -4.6021   1.4076   3.7277   5.2282

          k =-1.1250 0.3750-0.3750 (   361 PWs)   bands (ev):

    -2.9699  -0.5864   2.0874   4.1413

          k =-1.1250 0.8750-0.3750 (   349 PWs)   bands (ev):

    -4.0698   1.0704   3.3798   3.8285

          k =-0.3750 1.1250-0.3750 (   361 PWs)   bands (ev):

    -2.9699  -0.5864   2.0874   4.1413

          k =-0.3750 1.6250-0.3750 (   353 PWs)   bands (ev):

    -4.1706   0.1206   4.9217   4.9217

          k =-0.3750-1.1250-0.3750 (   361 PWs)   bands (ev):

    -2.9699  -0.5864   2.0874   4.1413

          k =-0.3750-0.6250-0.3750 (   359 PWs)   bands (ev):

    -3.4653  -0.6670   3.7465   4.4575

     highest occupied level (ev):     5.7103

     Writing output data file silicon.10.330.save

                                                                                

     bravais-lattice index     =            2
     lattice parameter (alat)  =      10.3300  a.u.
     unit-cell volume          =     275.5757 (a.u.)^3
     number of atoms/cell      =            2
     number of atomic types    =            1
     kinetic-energy cut-off    =      18.0000  Ry
     charge density cut-off    =      72.0000  Ry
     convergence threshold     =      1.0E-12
     beta                      =       0.7000
     number of iterations used =            4
     Exchange-correlation      = SLA  PW   PBE  PBE ( 1  4  3  4 0 0)


     celldm(1)=   10.33000  celldm(2)=    0.00000  celldm(3)=    0.00000
     celldm(4)=    0.00000  celldm(5)=    0.00000  celldm(6)=    0.00000

     crystal axes: (cart. coord. in units of alat)
               a(1) = ( -0.5000  0.0000  0.5000 )  
               a(2) = (  0.0000  0.5000  0.5000 )  
               a(3) = ( -0.5000  0.5000  0.0000 )  

     reciprocal axes: (cart. coord. in units 2 pi/alat)
               b(1) = ( -1.0000 -1.0000  1.0000 )  
               b(2) = (  1.0000  1.0000  1.0000 )  
               b(3) = ( -1.0000  1.0000 -1.0000 )  


     Atoms inside the unit cell: 

     Cartesian axes

     site n.  atom      mass           positions (alat units)
        1     Si  28.0860   tau(    1) = (    0.00000    0.00000    0.00000  )
        2     Si  28.0860   tau(    2) = (    0.25000    0.25000    0.25000  )

     Computing dynamical matrix for 
                    q = (   0.0000000   0.5000000   0.0000000 )

      8 Sym.Ops. (no q -> -q+G )


     G cutoff =  194.6137  (    685 G-vectors)     FFT grid: ( 20, 20, 20)
     number of k points=    80

     PseudoPot. # 1 for Si read from file:
     /home/max/quantum_espresso/qe-6.1/pseudo/si_pbe_v1.uspp.F.UPF.txt
     MD5 check sum: a056efeee980c13900f22a371efd63c1
     Pseudo is Ultrasoft + core correction, Zval =  4.0
     Generated by new atomic code, or converted to UPF format
     Using radial grid of  899 points,  6 beta functions with: 
                l(1) =   0
                l(2) =   0
                l(3) =   1
                l(4) =   1
                l(5) =   2
                l(6) =   2
     Q(r) pseudized with  8 coefficients,  rinner =    0.900   0.900   0.900
                                                       0.900   0.900

     Mode symmetry, C_4v (4mm)  point group:


     Atomic displacements:
     There are   4 irreducible representations

     Representation     1      1 modes -A_1  G_1 D_1  To be done

     Representation     2      1 modes -B_2  G_4 D_2'  To be done

     Representation     3      2 modes -E    G_5 D_5  To be done

     Representation     4      2 modes -E    G_5 D_5  To be done



     Alpha used in Ewald sum =   0.7000
     PHONON       :    25.11s CPU        28.90s WALL



     Representation #  1 mode #   1

     Self-consistent Calculation

      iter #   1 total cpu time :    29.1 secs   av.it.:   5.8
      thresh= 1.000E-02 alpha_mix =  0.700 |ddv_scf|^2 =  2.974E-03

      iter #   2 total cpu time :    29.3 secs   av.it.:   7.7
      thresh= 5.453E-03 alpha_mix =  0.700 |ddv_scf|^2 =  3.910E-02

      iter #   3 total cpu time :    29.5 secs   av.it.:   6.7
      thresh= 1.000E-02 alpha_mix =  0.700 |ddv_scf|^2 =  1.378E-07

      iter #   4 total cpu time :    29.7 secs   av.it.:   8.2
      thresh= 3.712E-05 alpha_mix =  0.700 |ddv_scf|^2 =  1.245E-08

      iter #   5 total cpu time :    29.9 secs   av.it.:   7.8
      thresh= 1.116E-05 alpha_mix =  0.700 |ddv_scf|^2 =  7.430E-10

      iter #   6 total cpu time :    30.1 secs   av.it.:   7.8
      thresh= 2.726E-06 alpha_mix =  0.700 |ddv_scf|^2 =  2.751E-12

      iter #   7 total cpu time :    30.3 secs   av.it.:   7.9
      thresh= 1.659E-07 alpha_mix =  0.700 |ddv_scf|^2 =  5.453E-13

     End of self-consistent calculation

     Convergence has been achieved 


     Representation #  2 mode #   2

     Self-consistent Calculation

      iter #   1 total cpu time :    30.7 secs   av.it.:   4.9
      thresh= 1.000E-02 alpha_mix =  0.700 |ddv_scf|^2 =  5.512E-06

      iter #   2 total cpu time :    31.1 secs   av.it.:   8.6
      thresh= 2.348E-04 alpha_mix =  0.700 |ddv_scf|^2 =  1.332E-06

      iter #   3 total cpu time :    31.3 secs   av.it.:   8.5
      thresh= 1.154E-04 alpha_mix =  0.700 |ddv_scf|^2 =  4.266E-08

      iter #   4 total cpu time :    31.5 secs   av.it.:   8.2
      thresh= 2.065E-05 alpha_mix =  0.700 |ddv_scf|^2 =  6.931E-10

      iter #   5 total cpu time :    31.7 secs   av.it.:   8.5
      thresh= 2.633E-06 alpha_mix =  0.700 |ddv_scf|^2 =  6.870E-12

      iter #   6 total cpu time :    32.0 secs   av.it.:   7.9
      thresh= 2.621E-07 alpha_mix =  0.700 |ddv_scf|^2 =  7.021E-14

     End of self-consistent calculation

     Convergence has been achieved 


     Representation #  3 modes #   3  4

     Self-consistent Calculation

      iter #   1 total cpu time :    32.3 secs   av.it.:   5.0
      thresh= 1.000E-02 alpha_mix =  0.700 |ddv_scf|^2 =  1.025E-06

      iter #   2 total cpu time :    33.1 secs   av.it.:   9.7
      thresh= 1.012E-04 alpha_mix =  0.700 |ddv_scf|^2 =  1.268E-07

      iter #   3 total cpu time :    33.6 secs   av.it.:   9.5
      thresh= 3.561E-05 alpha_mix =  0.700 |ddv_scf|^2 =  6.692E-09

      iter #   4 total cpu time :    34.0 secs   av.it.:   8.8
      thresh= 8.180E-06 alpha_mix =  0.700 |ddv_scf|^2 =  9.372E-12

      iter #   5 total cpu time :    34.8 secs   av.it.:   9.1
      thresh= 3.061E-07 alpha_mix =  0.700 |ddv_scf|^2 =  2.853E-13

     End of self-consistent calculation

     Convergence has been achieved 


     Representation #  4 modes #   5  6

     Self-consistent Calculation

      iter #   1 total cpu time :    35.2 secs   av.it.:   5.0
      thresh= 1.000E-02 alpha_mix =  0.700 |ddv_scf|^2 =  9.083E-07

      iter #   2 total cpu time :    35.7 secs   av.it.:   9.8
      thresh= 9.530E-05 alpha_mix =  0.700 |ddv_scf|^2 =  1.150E-07

      iter #   3 total cpu time :    36.1 secs   av.it.:   9.5
      thresh= 3.391E-05 alpha_mix =  0.700 |ddv_scf|^2 =  6.148E-09

      iter #   4 total cpu time :    36.9 secs   av.it.:   8.9
      thresh= 7.841E-06 alpha_mix =  0.700 |ddv_scf|^2 =  1.403E-11

      iter #   5 total cpu time :    37.4 secs   av.it.:   9.2
      thresh= 3.746E-07 alpha_mix =  0.700 |ddv_scf|^2 =  4.317E-14

     End of self-consistent calculation

     Convergence has been achieved 

     Number of q in the star =    6
     List of q in the star:
          1   0.000000000   0.500000000   0.000000000
          2   0.000000000  -0.500000000   0.000000000
          3   0.500000000   0.000000000   0.000000000
          4   0.000000000   0.000000000   0.500000000
          5   0.000000000   0.000000000  -0.500000000
          6  -0.500000000   0.000000000   0.000000000

     Diagonalizing the dynamical matrix

     q = (    0.000000000   0.500000000   0.000000000 ) 

 **************************************************************************
     freq (    1) =       4.216140 [THz] =     140.635284 [cm-1]
     freq (    2) =       4.216140 [THz] =     140.635284 [cm-1]
     freq (    3) =       7.191685 [THz] =     239.888795 [cm-1]
     freq (    4) =      13.725224 [THz] =     457.824191 [cm-1]
     freq (    5) =      13.725224 [THz] =     457.824191 [cm-1]
     freq (    6) =      14.334536 [THz] =     478.148658 [cm-1]
 **************************************************************************

     Mode symmetry, C_4v (4mm)  point group:

     freq (  1 -  2) =        140.6  [cm-1]   --> E    G_5 D_5       
     freq (  3 -  3) =        239.9  [cm-1]   --> A_1  G_1 D_1       
     freq (  4 -  5) =        457.8  [cm-1]   --> E    G_5 D_5       
     freq (  6 -  6) =        478.1  [cm-1]   --> B_2  G_4 D_2'      

     Calculation of q =    0.7500000  -0.2500000   0.7500000

   Info: using nr1, nr2, nr3 values from input

   Info: using nr1, nr2, nr3 values from input

     Parallelization info
     --------------------
     sticks:   dense  smooth     PW     G-vecs:    dense   smooth      PW
     Min          63      63     30                  684      684     216
     Max          64      64     31                  688      688     218
     Sum         253     253    121                 2741     2741     869



     bravais-lattice index     =            2
     lattice parameter (alat)  =      10.3300  a.u.
     unit-cell volume          =     275.5757 (a.u.)^3
     number of atoms/cell      =            2
     number of atomic types    =            1
     number of electrons       =         8.00
     number of Kohn-Sham states=            4
     kinetic-energy cutoff     =      18.0000  Ry
     charge density cutoff     =      72.0000  Ry
     Exchange-correlation      = SLA  PW   PBE  PBE ( 1  4  3  4 0 0)

     celldm(1)=  10.330000  celldm(2)=   0.000000  celldm(3)=   0.000000
     celldm(4)=   0.000000  celldm(5)=   0.000000  celldm(6)=   0.000000

     crystal axes: (cart. coord. in units of alat)
               a(1) = (  -0.500000   0.000000   0.500000 )  
               a(2) = (   0.000000   0.500000   0.500000 )  
               a(3) = (  -0.500000   0.500000   0.000000 )  

     reciprocal axes: (cart. coord. in units 2 pi/alat)
               b(1) = ( -1.000000 -1.000000  1.000000 )  
               b(2) = (  1.000000  1.000000  1.000000 )  
               b(3) = ( -1.000000  1.000000 -1.000000 )  


     PseudoPot. # 1 for Si read from file:
     /home/max/quantum_espresso/qe-6.1/pseudo/si_pbe_v1.uspp.F.UPF.txt
     MD5 check sum: a056efeee980c13900f22a371efd63c1
     Pseudo is Ultrasoft + core correction, Zval =  4.0
     Generated by new atomic code, or converted to UPF format
     Using radial grid of  899 points,  6 beta functions with: 
                l(1) =   0
                l(2) =   0
                l(3) =   1
                l(4) =   1
                l(5) =   2
                l(6) =   2
     Q(r) pseudized with  8 coefficients,  rinner =    0.900   0.900   0.900
                                                       0.900   0.900

     atomic species   valence    mass     pseudopotential
        Si             4.00    28.08600     Si( 1.00)

     48 Sym. Ops., with inversion, found



   Cartesian axes

     site n.     atom                  positions (alat units)
         1           Si  tau(   1) = (   0.0000000   0.0000000   0.0000000  )
         2           Si  tau(   2) = (   0.2500000   0.2500000   0.2500000  )

     number of k points=   288

     Number of k-points >= 100: set verbosity='high' to print them.

     Dense  grid:     2741 G-vectors     FFT dimensions: (  20,  20,  20)

     Estimated max dynamical RAM per process >       0.33MB

     Estimated total allocated dynamical RAM >       1.30MB

     Check: negative/imaginary core charge=   -0.000005    0.000000

     The potential is recalculated from file :
     ./_ph0/silicon.10.330.save/charge-density.dat

     Starting wfc are    8 atomic wfcs

     Band Structure Calculation
     Davidson diagonalization with overlap

     ethr =  1.25E-10,  avg # of iterations = 11.6

     total cpu time spent up to now is        5.0 secs

     End of band structure calculation

     Number of k-points >= 100: set verbosity='high' to print the bands.

     highest occupied level (ev):     5.7103

     Writing output data file silicon.10.330.save

                                                                                

     bravais-lattice index     =            2
     lattice parameter (alat)  =      10.3300  a.u.
     unit-cell volume          =     275.5757 (a.u.)^3
     number of atoms/cell      =            2
     number of atomic types    =            1
     kinetic-energy cut-off    =      18.0000  Ry
     charge density cut-off    =      72.0000  Ry
     convergence threshold     =      1.0E-12
     beta                      =       0.7000
     number of iterations used =            4
     Exchange-correlation      = SLA  PW   PBE  PBE ( 1  4  3  4 0 0)


     celldm(1)=   10.33000  celldm(2)=    0.00000  celldm(3)=    0.00000
     celldm(4)=    0.00000  celldm(5)=    0.00000  celldm(6)=    0.00000

     crystal axes: (cart. coord. in units of alat)
               a(1) = ( -0.5000  0.0000  0.5000 )  
               a(2) = (  0.0000  0.5000  0.5000 )  
               a(3) = ( -0.5000  0.5000  0.0000 )  

     reciprocal axes: (cart. coord. in units 2 pi/alat)
               b(1) = ( -1.0000 -1.0000  1.0000 )  
               b(2) = (  1.0000  1.0000  1.0000 )  
               b(3) = ( -1.0000  1.0000 -1.0000 )  


     Atoms inside the unit cell: 

     Cartesian axes

     site n.  atom      mass           positions (alat units)
        1     Si  28.0860   tau(    1) = (    0.00000    0.00000    0.00000  )
        2     Si  28.0860   tau(    2) = (    0.25000    0.25000    0.25000  )

     Computing dynamical matrix for 
                    q = (   0.7500000  -0.2500000   0.7500000 )

      2 Sym.Ops. (no q -> -q+G )


     G cutoff =  194.6137  (    685 G-vectors)     FFT grid: ( 20, 20, 20)
     number of k points=   288

     PseudoPot. # 1 for Si read from file:
     /home/max/quantum_espresso/qe-6.1/pseudo/si_pbe_v1.uspp.F.UPF.txt
     MD5 check sum: a056efeee980c13900f22a371efd63c1
     Pseudo is Ultrasoft + core correction, Zval =  4.0
     Generated by new atomic code, or converted to UPF format
     Using radial grid of  899 points,  6 beta functions with: 
                l(1) =   0
                l(2) =   0
                l(3) =   1
                l(4) =   1
                l(5) =   2
                l(6) =   2
     Q(r) pseudized with  8 coefficients,  rinner =    0.900   0.900   0.900
                                                       0.900   0.900

     Mode symmetry, C_s (m)     point group:


     Atomic displacements:
     There are   6 irreducible representations

     Representation     1      1 modes -A'  To be done

     Representation     2      1 modes -A'  To be done

     Representation     3      1 modes -A'  To be done

     Representation     4      1 modes -A'  To be done

     Representation     5      1 modes -A''  To be done

     Representation     6      1 modes -A''  To be done



     Alpha used in Ewald sum =   0.7000
     PHONON       :    35.92s CPU        40.98s WALL



     Representation #  1 mode #   1

     Self-consistent Calculation

      iter #   1 total cpu time :    41.6 secs   av.it.:   5.3
      thresh= 1.000E-02 alpha_mix =  0.700 |ddv_scf|^2 =  6.123E-05

      iter #   2 total cpu time :    42.3 secs   av.it.:   8.9
      thresh= 7.825E-04 alpha_mix =  0.700 |ddv_scf|^2 =  1.601E-04

      iter #   3 total cpu time :    43.4 secs   av.it.:   7.6
      thresh= 1.265E-03 alpha_mix =  0.700 |ddv_scf|^2 =  1.140E-06

      iter #   4 total cpu time :    44.1 secs   av.it.:   8.4
      thresh= 1.068E-04 alpha_mix =  0.700 |ddv_scf|^2 =  5.634E-08

      iter #   5 total cpu time :    45.2 secs   av.it.:   8.3
      thresh= 2.374E-05 alpha_mix =  0.700 |ddv_scf|^2 =  7.256E-09

      iter #   6 total cpu time :    45.9 secs   av.it.:   8.5
      thresh= 8.518E-06 alpha_mix =  0.700 |ddv_scf|^2 =  7.924E-11

      iter #   7 total cpu time :    47.1 secs   av.it.:   8.8
      thresh= 8.902E-07 alpha_mix =  0.700 |ddv_scf|^2 =  2.860E-12

      iter #   8 total cpu time :    47.8 secs   av.it.:   8.6
      thresh= 1.691E-07 alpha_mix =  0.700 |ddv_scf|^2 =  1.790E-13

     End of self-consistent calculation

     Convergence has been achieved 


     Representation #  2 mode #   2

     Self-consistent Calculation

      iter #   1 total cpu time :    48.5 secs   av.it.:   5.4
      thresh= 1.000E-02 alpha_mix =  0.700 |ddv_scf|^2 =  1.090E-04

      iter #   2 total cpu time :    49.5 secs   av.it.:   8.7
      thresh= 1.044E-03 alpha_mix =  0.700 |ddv_scf|^2 =  3.107E-04

      iter #   3 total cpu time :    50.2 secs   av.it.:   7.4
      thresh= 1.763E-03 alpha_mix =  0.700 |ddv_scf|^2 =  7.817E-07

      iter #   4 total cpu time :    51.3 secs   av.it.:   8.5
      thresh= 8.842E-05 alpha_mix =  0.700 |ddv_scf|^2 =  5.586E-08

      iter #   5 total cpu time :    52.1 secs   av.it.:   8.2
      thresh= 2.363E-05 alpha_mix =  0.700 |ddv_scf|^2 =  1.023E-08

      iter #   6 total cpu time :    53.2 secs   av.it.:   8.5
      thresh= 1.011E-05 alpha_mix =  0.700 |ddv_scf|^2 =  7.864E-11

      iter #   7 total cpu time :    53.9 secs   av.it.:   8.8
      thresh= 8.868E-07 alpha_mix =  0.700 |ddv_scf|^2 =  2.476E-12

      iter #   8 total cpu time :    55.0 secs   av.it.:   8.7
      thresh= 1.573E-07 alpha_mix =  0.700 |ddv_scf|^2 =  5.502E-13

     End of self-consistent calculation

     Convergence has been achieved 


     Representation #  3 mode #   3

     Self-consistent Calculation

      iter #   1 total cpu time :    55.6 secs   av.it.:   5.3
      thresh= 1.000E-02 alpha_mix =  0.700 |ddv_scf|^2 =  8.550E-05

      iter #   2 total cpu time :    56.4 secs   av.it.:   8.8
      thresh= 9.246E-04 alpha_mix =  0.700 |ddv_scf|^2 =  2.280E-04

      iter #   3 total cpu time :    57.4 secs   av.it.:   7.4
      thresh= 1.510E-03 alpha_mix =  0.700 |ddv_scf|^2 =  1.335E-06

      iter #   4 total cpu time :    58.2 secs   av.it.:   8.2
      thresh= 1.155E-04 alpha_mix =  0.700 |ddv_scf|^2 =  5.694E-08

      iter #   5 total cpu time :    59.3 secs   av.it.:   8.4
      thresh= 2.386E-05 alpha_mix =  0.700 |ddv_scf|^2 =  1.048E-08

      iter #   6 total cpu time :    60.0 secs   av.it.:   8.4
      thresh= 1.024E-05 alpha_mix =  0.700 |ddv_scf|^2 =  4.624E-11

      iter #   7 total cpu time :    61.2 secs   av.it.:   8.7
      thresh= 6.800E-07 alpha_mix =  0.700 |ddv_scf|^2 =  1.583E-12

      iter #   8 total cpu time :    61.9 secs   av.it.:   8.8
      thresh= 1.258E-07 alpha_mix =  0.700 |ddv_scf|^2 =  2.370E-13

     End of self-consistent calculation

     Convergence has been achieved 


     Representation #  4 mode #   4

     Self-consistent Calculation

      iter #   1 total cpu time :    62.9 secs   av.it.:   5.2
      thresh= 1.000E-02 alpha_mix =  0.700 |ddv_scf|^2 =  3.772E-05

      iter #   2 total cpu time :    63.7 secs   av.it.:   8.9
[...]
        k(   59) = (  -0.8750000   0.1250000  -0.1250000), wk =   0.0625000
        k(   60) = (  -1.3750000  -0.8750000  -0.1250000), wk =   0.0000000
        k(   61) = (  -1.1250000   0.3750000  -0.3750000), wk =   0.0625000
        k(   62) = (  -1.6250000  -0.6250000  -0.3750000), wk =   0.0000000
        k(   63) = (  -0.3750000   0.3750000   1.1250000), wk =   0.0625000
        k(   64) = (  -0.8750000  -0.6250000   1.1250000), wk =   0.0000000

     Dense  grid:     2741 G-vectors     FFT dimensions: (  20,  20,  20)

     Estimated max dynamical RAM per process >       0.33MB

     Estimated total allocated dynamical RAM >       1.30MB

     Check: negative/imaginary core charge=   -0.000005    0.000000

     The potential is recalculated from file :
     ./_ph0/silicon.10.330.save/charge-density.dat

     Starting wfc are    8 atomic wfcs

     Band Structure Calculation
     Davidson diagonalization with overlap

     ethr =  1.25E-10,  avg # of iterations = 11.6

     total cpu time spent up to now is        7.8 secs

     End of band structure calculation

          k =-0.1250 0.1250 0.1250 (   338 PWs)   bands (ev):

    -5.6268   4.4016   5.7103   5.7103

          k =-0.6250-0.8750 0.1250 (   359 PWs)   bands (ev):

    -2.4328  -0.8920   2.0302   3.1026

          k =-0.3750 0.3750-0.1250 (   352 PWs)   bands (ev):

    -4.6021   1.4076   3.7277   5.2282

          k =-0.8750-0.6250-0.1250 (   359 PWs)   bands (ev):

    -2.4328  -0.8920   2.0302   3.1026

          k = 0.3750-0.3750 0.6250 (   359 PWs)   bands (ev):

    -3.4653  -0.6670   3.7465   4.4575

          k =-0.1250-1.3750 0.6250 (   361 PWs)   bands (ev):

    -2.9699  -0.5864   2.0874   4.1413

          k = 0.1250-0.1250 0.3750 (   349 PWs)   bands (ev):

    -5.1001   2.7830   4.7025   4.7670

          k =-0.3750-1.1250 0.3750 (   361 PWs)   bands (ev):

    -2.9699  -0.5864   2.0874   4.1413

          k =-0.1250 0.6250 0.1250 (   349 PWs)   bands (ev):

    -4.0698   1.0704   3.3798   3.8285

          k =-0.6250-0.3750 0.1250 (   357 PWs)   bands (ev):

    -3.6556   0.1994   2.7396   4.1043

          k = 0.6250-0.1250 0.8750 (   359 PWs)   bands (ev):

    -2.4328  -0.8920   2.0302   3.1026

          k = 0.1250-1.1250 0.8750 (   358 PWs)   bands (ev):

    -2.5996  -0.7950   2.6368   3.3616

          k = 0.3750 0.1250 0.6250 (   357 PWs)   bands (ev):

    -3.6556   0.1994   2.7396   4.1043

          k =-0.1250-0.8750 0.6250 (   359 PWs)   bands (ev):

    -2.4328  -0.8920   2.0302   3.1026

          k =-0.1250-0.8750 0.1250 (   358 PWs)   bands (ev):

    -2.5996  -0.7950   2.6368   3.3616

          k =-0.6250-1.8750 0.1250 (   349 PWs)   bands (ev):

    -4.0698   1.0704   3.3798   3.8285

          k =-0.3750 0.3750 0.3750 (   353 PWs)   bands (ev):

    -4.1706   0.1206   4.9217   4.9217

          k =-0.8750-0.6250 0.3750 (   357 PWs)   bands (ev):

    -3.6556   0.1994   2.7396   4.1043

          k = 0.3750-0.3750 1.1250 (   361 PWs)   bands (ev):

    -2.9699  -0.5864   2.0874   4.1413

          k =-0.1250-1.3750 1.1250 (   359 PWs)   bands (ev):

    -2.4328  -0.8920   2.0302   3.1026

          k = 0.1250-0.3750 0.3750 (   352 PWs)   bands (ev):

    -4.6021   1.4076   3.7277   5.2282

          k =-0.3750-1.3750 0.3750 (   359 PWs)   bands (ev):

    -3.4653  -0.6670   3.7465   4.4575

          k = 0.3750-0.3750-0.1250 (   352 PWs)   bands (ev):

    -4.6021   1.4076   3.7277   5.2282

          k =-0.1250-1.3750-0.1250 (   349 PWs)   bands (ev):

    -4.0698   1.0704   3.3798   3.8285

          k =-0.6250 0.3750-0.3750 (   359 PWs)   bands (ev):

    -3.4653  -0.6670   3.7465   4.4575

          k =-1.1250-0.6250-0.3750 (   357 PWs)   bands (ev):

    -3.6556   0.1994   2.7396   4.1043

          k =-0.3750 0.3750 0.6250 (   359 PWs)   bands (ev):

    -3.4653  -0.6670   3.7465   4.4575

          k =-0.8750-0.6250 0.6250 (   352 PWs)   bands (ev):

    -4.6021   1.4076   3.7277   5.2282

          k =-0.3750 0.1250-0.1250 (   349 PWs)   bands (ev):

    -5.1001   2.7830   4.7025   4.7670

          k =-0.8750-0.8750-0.1250 (   358 PWs)   bands (ev):

    -2.5996  -0.7950   2.6368   3.3616

          k =-0.1250 0.1250 0.3750 (   349 PWs)   bands (ev):

    -5.1001   2.7830   4.7025   4.7670

          k =-0.6250-0.8750 0.3750 (   357 PWs)   bands (ev):

    -3.6556   0.1994   2.7396   4.1043

          k = 0.1250 0.6250-0.1250 (   349 PWs)   bands (ev):

    -4.0698   1.0704   3.3798   3.8285

          k =-0.3750-0.3750-0.1250 (   352 PWs)   bands (ev):

    -4.6021   1.4076   3.7277   5.2282

          k = 0.6250 0.1250-0.1250 (   349 PWs)   bands (ev):

    -4.0698   1.0704   3.3798   3.8285

          k = 0.1250-0.8750-0.1250 (   358 PWs)   bands (ev):

    -2.5996  -0.7950   2.6368   3.3616

          k =-0.8750 0.1250-0.6250 (   359 PWs)   bands (ev):

    -2.4328  -0.8920   2.0302   3.1026

          k =-1.3750-0.8750-0.6250 (   352 PWs)   bands (ev):

    -4.6021   1.4076   3.7277   5.2282

          k = 0.8750-0.1250 0.6250 (   359 PWs)   bands (ev):

    -2.4328  -0.8920   2.0302   3.1026

          k = 0.3750-1.1250 0.6250 (   357 PWs)   bands (ev):

    -3.6556   0.1994   2.7396   4.1043

          k =-0.6250 0.1250 0.8750 (   359 PWs)   bands (ev):

    -2.4328  -0.8920   2.0302   3.1026

          k =-1.1250-0.8750 0.8750 (   338 PWs)   bands (ev):

    -5.6268   4.4016   5.7103   5.7103

          k =-0.1250 0.8750 0.6250 (   359 PWs)   bands (ev):

    -2.4328  -0.8920   2.0302   3.1026

          k =-0.6250-0.1250 0.6250 (   361 PWs)   bands (ev):

    -2.9699  -0.5864   2.0874   4.1413

          k = 0.1250 0.8750-0.6250 (   359 PWs)   bands (ev):

    -2.4328  -0.8920   2.0302   3.1026

          k =-0.3750-0.1250-0.6250 (   357 PWs)   bands (ev):

    -3.6556   0.1994   2.7396   4.1043

          k =-0.6250-0.1250-0.3750 (   357 PWs)   bands (ev):

    -3.6556   0.1994   2.7396   4.1043

          k =-1.1250-1.1250-0.3750 (   349 PWs)   bands (ev):

    -4.0698   1.0704   3.3798   3.8285

          k = 0.6250 0.1250 0.3750 (   357 PWs)   bands (ev):

    -3.6556   0.1994   2.7396   4.1043

          k = 0.1250-0.8750 0.3750 (   359 PWs)   bands (ev):

    -2.4328  -0.8920   2.0302   3.1026

          k =-0.3750-0.1250 0.6250 (   357 PWs)   bands (ev):

    -3.6556   0.1994   2.7396   4.1043

          k =-0.8750-1.1250 0.6250 (   349 PWs)   bands (ev):

    -5.1001   2.7830   4.7025   4.7670

          k = 0.1250 0.6250 0.3750 (   357 PWs)   bands (ev):

    -3.6556   0.1994   2.7396   4.1043

          k =-0.3750-0.3750 0.3750 (   353 PWs)   bands (ev):

    -4.1706   0.1206   4.9217   4.9217

          k =-0.1250 0.6250-0.3750 (   357 PWs)   bands (ev):

    -3.6556   0.1994   2.7396   4.1043

          k =-0.6250-0.3750-0.3750 (   359 PWs)   bands (ev):

    -3.4653  -0.6670   3.7465   4.4575

          k = 0.1250-0.8750-0.1250 (   358 PWs)   bands (ev):

    -2.5996  -0.7950   2.6368   3.3616

          k =-0.3750-1.8750-0.1250 (   349 PWs)   bands (ev):

    -5.1001   2.7830   4.7025   4.7670

          k =-0.8750 0.1250-0.1250 (   358 PWs)   bands (ev):

    -2.5996  -0.7950   2.6368   3.3616

          k =-1.3750-0.8750-0.1250 (   359 PWs)   bands (ev):

    -2.4328  -0.8920   2.0302   3.1026

          k =-1.1250 0.3750-0.3750 (   361 PWs)   bands (ev):

    -2.9699  -0.5864   2.0874   4.1413

          k =-1.6250-0.6250-0.3750 (   359 PWs)   bands (ev):

    -3.4653  -0.6670   3.7465   4.4575

          k =-0.3750 0.3750 1.1250 (   361 PWs)   bands (ev):

    -2.9699  -0.5864   2.0874   4.1413

          k =-0.8750-0.6250 1.1250 (   349 PWs)   bands (ev):

    -5.1001   2.7830   4.7025   4.7670

     highest occupied level (ev):     5.7103

     Writing output data file silicon.10.330.save

                                                                                

     bravais-lattice index     =            2
     lattice parameter (alat)  =      10.3300  a.u.
     unit-cell volume          =     275.5757 (a.u.)^3
     number of atoms/cell      =            2
     number of atomic types    =            1
     kinetic-energy cut-off    =      18.0000  Ry
     charge density cut-off    =      72.0000  Ry
     convergence threshold     =      1.0E-12
     beta                      =       0.7000
     number of iterations used =            4
     Exchange-correlation      = SLA  PW   PBE  PBE ( 1  4  3  4 0 0)


     celldm(1)=   10.33000  celldm(2)=    0.00000  celldm(3)=    0.00000
     celldm(4)=    0.00000  celldm(5)=    0.00000  celldm(6)=    0.00000

     crystal axes: (cart. coord. in units of alat)
               a(1) = ( -0.5000  0.0000  0.5000 )  
               a(2) = (  0.0000  0.5000  0.5000 )  
               a(3) = ( -0.5000  0.5000  0.0000 )  

     reciprocal axes: (cart. coord. in units 2 pi/alat)
               b(1) = ( -1.0000 -1.0000  1.0000 )  
               b(2) = (  1.0000  1.0000  1.0000 )  
               b(3) = ( -1.0000  1.0000 -1.0000 )  


     Atoms inside the unit cell: 

     Cartesian axes

     site n.  atom      mass           positions (alat units)
        1     Si  28.0860   tau(    1) = (    0.00000    0.00000    0.00000  )
        2     Si  28.0860   tau(    2) = (    0.25000    0.25000    0.25000  )

     Computing dynamical matrix for 
                    q = (  -0.5000000  -1.0000000   0.0000000 )

      8 Sym.Ops. (no q -> -q+G )


     G cutoff =  194.6137  (    685 G-vectors)     FFT grid: ( 20, 20, 20)
     number of k points=    64

     PseudoPot. # 1 for Si read from file:
     /home/max/quantum_espresso/qe-6.1/pseudo/si_pbe_v1.uspp.F.UPF.txt
     MD5 check sum: a056efeee980c13900f22a371efd63c1
     Pseudo is Ultrasoft + core correction, Zval =  4.0
     Generated by new atomic code, or converted to UPF format
     Using radial grid of  899 points,  6 beta functions with: 
                l(1) =   0
                l(2) =   0
                l(3) =   1
                l(4) =   1
                l(5) =   2
                l(6) =   2
     Q(r) pseudized with  8 coefficients,  rinner =    0.900   0.900   0.900
                                                       0.900   0.900


     Atomic displacements:
     There are   3 irreducible representations

     Representation     1      2 modes -  To be done

     Representation     2      2 modes -  To be done

     Representation     3      2 modes -  To be done



     Alpha used in Ewald sum =   0.7000
     PHONON       :  1m30.54s CPU     1m42.53s WALL



     Representation #  1 modes #   1  2

     Self-consistent Calculation

      iter #   1 total cpu time :   103.1 secs   av.it.:   5.3
      thresh= 1.000E-02 alpha_mix =  0.700 |ddv_scf|^2 =  6.339E-06

      iter #   2 total cpu time :   103.5 secs   av.it.:   9.9
      thresh= 2.518E-04 alpha_mix =  0.700 |ddv_scf|^2 =  3.434E-06

      iter #   3 total cpu time :   103.9 secs   av.it.:   9.2
      thresh= 1.853E-04 alpha_mix =  0.700 |ddv_scf|^2 =  8.429E-09

      iter #   4 total cpu time :   104.3 secs   av.it.:   9.1
      thresh= 9.181E-06 alpha_mix =  0.700 |ddv_scf|^2 =  1.912E-11

      iter #   5 total cpu time :   105.0 secs   av.it.:   9.1
      thresh= 4.372E-07 alpha_mix =  0.700 |ddv_scf|^2 =  5.270E-13

     End of self-consistent calculation

     Convergence has been achieved 


     Representation #  2 modes #   3  4

     Self-consistent Calculation

      iter #   1 total cpu time :   105.3 secs   av.it.:   5.2
      thresh= 1.000E-02 alpha_mix =  0.700 |ddv_scf|^2 =  9.821E-06

      iter #   2 total cpu time :   105.7 secs   av.it.:   9.9
      thresh= 3.134E-04 alpha_mix =  0.700 |ddv_scf|^2 =  1.305E-05

      iter #   3 total cpu time :   106.0 secs   av.it.:   9.1
      thresh= 3.613E-04 alpha_mix =  0.700 |ddv_scf|^2 =  9.909E-09

      iter #   4 total cpu time :   106.4 secs   av.it.:   8.9
      thresh= 9.955E-06 alpha_mix =  0.700 |ddv_scf|^2 =  8.054E-11

      iter #   5 total cpu time :   107.1 secs   av.it.:   9.4
      thresh= 8.975E-07 alpha_mix =  0.700 |ddv_scf|^2 =  1.733E-12

      iter #   6 total cpu time :   107.5 secs   av.it.:   9.1
      thresh= 1.317E-07 alpha_mix =  0.700 |ddv_scf|^2 =  1.446E-14

     End of self-consistent calculation

     Convergence has been achieved 


     Representation #  3 modes #   5  6

     Self-consistent Calculation

      iter #   1 total cpu time :   107.8 secs   av.it.:   5.1
      thresh= 1.000E-02 alpha_mix =  0.700 |ddv_scf|^2 =  2.653E-06

      iter #   2 total cpu time :   108.2 secs   av.it.:   9.7
      thresh= 1.629E-04 alpha_mix =  0.700 |ddv_scf|^2 =  1.449E-06

      iter #   3 total cpu time :   108.5 secs   av.it.:   9.1
      thresh= 1.204E-04 alpha_mix =  0.700 |ddv_scf|^2 =  8.307E-09

      iter #   4 total cpu time :   109.2 secs   av.it.:   8.8
      thresh= 9.114E-06 alpha_mix =  0.700 |ddv_scf|^2 =  4.266E-11

      iter #   5 total cpu time :   109.6 secs   av.it.:   9.1
      thresh= 6.531E-07 alpha_mix =  0.700 |ddv_scf|^2 =  6.991E-13

     End of self-consistent calculation

     Convergence has been achieved 

     Number of q in the star =    6
     List of q in the star:
          1  -0.500000000  -1.000000000   0.000000000
          2   0.000000000   1.000000000   0.500000000
          3   0.000000000  -1.000000000  -0.500000000
          4   0.500000000   1.000000000   0.000000000
          5  -1.000000000  -0.500000000   0.000000000
          6   0.000000000  -0.500000000  -1.000000000

     Diagonalizing the dynamical matrix

     q = (   -0.500000000  -1.000000000   0.000000000 ) 

 **************************************************************************
     freq (    1) =       6.994205 [THz] =     233.301580 [cm-1]
     freq (    2) =       6.994205 [THz] =     233.301580 [cm-1]
     freq (    3) =      10.792351 [THz] =     359.994066 [cm-1]
     freq (    4) =      10.792351 [THz] =     359.994066 [cm-1]
     freq (    5) =      13.802040 [THz] =     460.386491 [cm-1]
     freq (    6) =      13.802040 [THz] =     460.386491 [cm-1]
 **************************************************************************

     init_run     :      0.55s CPU      0.59s WALL (       7 calls)
     electrons    :      5.45s CPU      6.35s WALL (       7 calls)

     Called by init_run:
     wfcinit      :      0.00s CPU      0.00s WALL (       7 calls)
     potinit      :      0.02s CPU      0.02s WALL (       7 calls)

     Called by electrons:
     c_bands      :      5.45s CPU      6.34s WALL (       7 calls)
     v_of_rho     :      0.01s CPU      0.01s WALL (       8 calls)
     newd         :      0.03s CPU      0.03s WALL (       8 calls)

     Called by c_bands:
     init_us_2    :      0.69s CPU      0.76s WALL (   17588 calls)
     cegterg      :      4.59s CPU      5.35s WALL (     796 calls)

     Called by sum_band:

     Called by *egterg:
     h_psi        :     52.97s CPU     59.63s WALL (  152179 calls)
     s_psi        :      5.83s CPU      6.38s WALL (  309078 calls)
     g_psi        :      0.03s CPU      0.03s WALL (    9268 calls)
     cdiaghg      :      0.52s CPU      0.61s WALL (   10064 calls)

     Called by h_psi:
     h_psi:pot    :     52.77s CPU     59.41s WALL (  152179 calls)
     h_psi:calbec :      6.08s CPU      6.95s WALL (  152179 calls)
     vloc_psi     :     43.55s CPU     48.99s WALL (  152179 calls)
     add_vuspsi   :      2.92s CPU      3.23s WALL (  152179 calls)

     General routines
     calbec       :     13.02s CPU     14.99s WALL (  345450 calls)
     fft          :      0.66s CPU      0.70s WALL (    5239 calls)
     ffts         :      0.20s CPU      0.24s WALL (    2748 calls)
     fftw         :     51.28s CPU     57.88s WALL ( 1377908 calls)
     davcio       :      0.31s CPU      0.36s WALL (   79045 calls)

     Parallel routines
     fft_scatter  :     19.15s CPU     22.45s WALL ( 1385895 calls)

     PHONON       :  1m37.01s CPU     1m49.63s WALL

     INITIALIZATION: 
     phq_setup    :      0.05s CPU      0.06s WALL (       8 calls)
     phq_init     :      2.71s CPU      3.14s WALL (       8 calls)

     phq_init     :      2.71s CPU      3.14s WALL (       8 calls)
     set_drhoc    :      0.29s CPU      0.32s WALL (      24 calls)
     init_vloc    :      0.01s CPU      0.01s WALL (       8 calls)
     init_us_1    :      0.51s CPU      0.53s WALL (       8 calls)
     newd         :      0.03s CPU      0.03s WALL (       8 calls)
     dvanqq       :      0.23s CPU      0.26s WALL (       8 calls)
     drho         :      1.54s CPU      1.80s WALL (       8 calls)

     DYNAMICAL MATRIX:
     dynmat0      :      0.69s CPU      0.82s WALL (       8 calls)
     phqscf       :     85.23s CPU     96.26s WALL (       8 calls)
     dynmatrix    :      0.01s CPU      0.01s WALL (       8 calls)

     phqscf       :     85.23s CPU     96.26s WALL (       8 calls)
     solve_linter :     84.49s CPU     95.44s WALL (      32 calls)
     drhodv       :      0.54s CPU      0.58s WALL (      32 calls)

     dynmat0      :      0.69s CPU      0.82s WALL (       8 calls)
     dynmat_us    :      0.44s CPU      0.54s WALL (       8 calls)
     d2ionq       :      0.01s CPU      0.01s WALL (       8 calls)
     dynmatcc     :      0.22s CPU      0.25s WALL (       8 calls)

     dynmat_us    :      0.44s CPU      0.54s WALL (       8 calls)
     addusdynmat  :      0.00s CPU      0.00s WALL (       8 calls)

     phqscf       :     85.23s CPU     96.26s WALL (       8 calls)
     solve_linter :     84.49s CPU     95.44s WALL (      32 calls)

     solve_linter :     84.49s CPU     95.44s WALL (      32 calls)
     dvqpsi_us    :      1.91s CPU      2.18s WALL (    2508 calls)
     ortho        :      1.49s CPU      1.74s WALL (   15550 calls)
     cgsolve      :     67.08s CPU     75.69s WALL (   15550 calls)
     incdrhoscf   :      5.77s CPU      6.55s WALL (   15550 calls)
     addusddens   :      1.22s CPU      1.32s WALL (     228 calls)
     vpsifft      :      4.21s CPU      4.81s WALL (   12922 calls)
     dv_of_drho   :      0.28s CPU      0.29s WALL (     295 calls)
     mix_pot      :      0.06s CPU      0.06s WALL (     201 calls)
     psymdvscf    :      0.80s CPU      0.86s WALL (     196 calls)
     newdq        :      1.30s CPU      1.40s WALL (     201 calls)
     adddvscf     :      0.47s CPU      0.52s WALL (   13042 calls)
     drhodvus     :      0.00s CPU      0.00s WALL (      32 calls)

     dvqpsi_us    :      1.91s CPU      2.18s WALL (    2508 calls)
     dvqpsi_us_on :      0.83s CPU      0.92s WALL (    2508 calls)

     cgsolve      :     67.08s CPU     75.69s WALL (   15550 calls)
     ch_psi       :     63.27s CPU     71.11s WALL (  141319 calls)

     ch_psi       :     63.27s CPU     71.11s WALL (  141319 calls)
     h_psi        :     52.97s CPU     59.63s WALL (  152179 calls)
     last         :     11.03s CPU     12.55s WALL (  141319 calls)

     h_psi        :     52.97s CPU     59.63s WALL (  152179 calls)
     add_vuspsi   :      2.92s CPU      3.23s WALL (  152179 calls)

     incdrhoscf   :      5.77s CPU      6.55s WALL (   15550 calls)
     addusdbec    :      0.92s CPU      1.11s WALL (   17998 calls)

     drhodvus     :      0.00s CPU      0.00s WALL (      32 calls)

      General routines
     calbec       :     13.02s CPU     14.99s WALL (  345450 calls)
     fft          :      0.66s CPU      0.70s WALL (    5239 calls)
     ffts         :      0.20s CPU      0.24s WALL (    2748 calls)
     fftw         :     51.28s CPU     57.88s WALL ( 1377908 calls)
     davcio       :      0.31s CPU      0.36s WALL (   79045 calls)
     write_rec    :      0.20s CPU      0.23s WALL (     233 calls)


     PHONON       :  1m37.01s CPU     1m49.63s WALL


   This run was terminated on:  12:19:43   9Nov2017            

=------------------------------------------------------------------------------=
   JOB DONE.
=------------------------------------------------------------------------------=
