
     Program PWSCF v.6.1 (svn rev. 13369) starts on 10Nov2017 at 10:28:14 

     This program is part of the open-source Quantum ESPRESSO suite
     for quantum simulation of materials; please cite
         "P. Giannozzi et al., J. Phys.:Condens. Matter 21 395502 (2009);
          URL http://www.quantum-espresso.org", 
     in publications or presentations arising from this work. More details at
     http://www.quantum-espresso.org/quote

     Parallel version (MPI), running on     4 processors
     R & G space division:  proc/nbgrp/npool/nimage =       4
     Waiting for input...
     Reading input from standard input
     Message from routine read_cards :
     DEPRECATED: no units specified in ATOMIC_POSITIONS card
     Message from routine read_cards :
     ATOMIC_POSITIONS: units set to alat

     Current dimensions of program PWSCF are:
     Max number of different atomic species (ntypx) = 10
     Max number of k-points (npk) =  40000
     Max angular momentum in pseudopotentials (lmaxx) =  3

     Subspace diagonalization in iterative solution of the eigenvalue problem:
     a serial algorithm will be used


     Parallelization info
     --------------------
     sticks:   dense  smooth     PW     G-vecs:    dense   smooth      PW
     Min         211     108     37                 4129     1489     284
     Max         212     109     38                 4134     1492     285
     Sum         847     433    151                16529     5961    1139



     bravais-lattice index     =            2
     lattice parameter (alat)  =      10.1800  a.u.
     unit-cell volume          =     263.7445 (a.u.)^3
     number of atoms/cell      =            2
     number of atomic types    =            1
     number of electrons       =         8.00
     number of Kohn-Sham states=            4
     kinetic-energy cutoff     =      30.0000  Ry
     charge density cutoff     =     240.0000  Ry
     convergence threshold     =      1.0E-08
     mixing beta               =       0.7000
     number of iterations used =            8  plain     mixing
     Exchange-correlation      = SLA  PW   PBE  PBE ( 1  4  3  4 0 0)

     celldm(1)=  10.180000  celldm(2)=   0.000000  celldm(3)=   0.000000
     celldm(4)=   0.000000  celldm(5)=   0.000000  celldm(6)=   0.000000

     crystal axes: (cart. coord. in units of alat)
               a(1) = (  -0.500000   0.000000   0.500000 )  
               a(2) = (   0.000000   0.500000   0.500000 )  
               a(3) = (  -0.500000   0.500000   0.000000 )  

     reciprocal axes: (cart. coord. in units 2 pi/alat)
               b(1) = ( -1.000000 -1.000000  1.000000 )  
               b(2) = (  1.000000  1.000000  1.000000 )  
               b(3) = ( -1.000000  1.000000 -1.000000 )  


     PseudoPot. # 1 for Si read from file:
     /home/max/quantum_espresso/qe-6.1/pseudo/si_pbe_v1.uspp.F.UPF.txt
     MD5 check sum: a056efeee980c13900f22a371efd63c1
     Pseudo is Ultrasoft + core correction, Zval =  4.0
     Generated by new atomic code, or converted to UPF format
     Using radial grid of  899 points,  6 beta functions with: 
                l(1) =   0
                l(2) =   0
                l(3) =   1
                l(4) =   1
                l(5) =   2
                l(6) =   2
     Q(r) pseudized with  8 coefficients,  rinner =    0.900   0.900   0.900
                                                       0.900   0.900

     atomic species   valence    mass     pseudopotential
        Si             4.00    28.08600     Si( 1.00)

     48 Sym. Ops., with inversion, found (24 have fractional translation)



   Cartesian axes

     site n.     atom                  positions (alat units)
         1           Si  tau(   1) = (   0.0000000   0.0000000   0.0000000  )
         2           Si  tau(   2) = (   0.2500000   0.2500000   0.2500000  )

     number of k points=    28
                       cart. coord. in units 2pi/alat
        k(    1) = (  -0.0833333   0.0833333   0.0833333), wk =   0.0185185
        k(    2) = (  -0.2500000   0.2500000  -0.0833333), wk =   0.0555556
        k(    3) = (  -0.4166667   0.4166667  -0.2500000), wk =   0.0555556
        k(    4) = (   0.4166667  -0.4166667   0.5833333), wk =   0.0555556
        k(    5) = (   0.2500000  -0.2500000   0.4166667), wk =   0.0555556
        k(    6) = (   0.0833333  -0.0833333   0.2500000), wk =   0.0555556
        k(    7) = (  -0.0833333   0.4166667   0.0833333), wk =   0.0555556
        k(    8) = (  -0.2500000   0.5833333  -0.0833333), wk =   0.1111111
        k(    9) = (   0.5833333  -0.2500000   0.7500000), wk =   0.1111111
        k(   10) = (   0.4166667  -0.0833333   0.5833333), wk =   0.1111111
        k(   11) = (   0.2500000   0.0833333   0.4166667), wk =   0.1111111
        k(   12) = (  -0.0833333   0.7500000   0.0833333), wk =   0.0555556
        k(   13) = (   0.7500000  -0.0833333   0.9166667), wk =   0.1111111
        k(   14) = (   0.5833333   0.0833333   0.7500000), wk =   0.1111111
        k(   15) = (   0.4166667   0.2500000   0.5833333), wk =   0.1111111
        k(   16) = (  -0.0833333  -0.9166667   0.0833333), wk =   0.0555556
        k(   17) = (  -0.2500000  -0.7500000  -0.0833333), wk =   0.1111111
        k(   18) = (  -0.0833333  -0.5833333   0.0833333), wk =   0.0555556
        k(   19) = (  -0.2500000   0.2500000   0.2500000), wk =   0.0185185
        k(   20) = (  -0.4166667   0.4166667   0.0833333), wk =   0.0555556
        k(   21) = (   0.4166667  -0.4166667   0.9166667), wk =   0.0555556
        k(   22) = (   0.2500000  -0.2500000   0.7500000), wk =   0.0555556
        k(   23) = (  -0.2500000   0.5833333   0.2500000), wk =   0.0555556
        k(   24) = (   0.5833333  -0.2500000   1.0833333), wk =   0.1111111
        k(   25) = (   0.4166667  -0.0833333   0.9166667), wk =   0.1111111
        k(   26) = (  -0.2500000  -1.0833333   0.2500000), wk =   0.0555556
        k(   27) = (  -0.4166667   0.4166667   0.4166667), wk =   0.0185185
        k(   28) = (   0.4166667  -0.4166667   1.2500000), wk =   0.0555556

     Dense  grid:    16529 G-vectors     FFT dimensions: (  36,  36,  36)

     Smooth grid:     5961 G-vectors     FFT dimensions: (  25,  25,  25)

     Estimated max dynamical RAM per process >       2.96MB

     Estimated total allocated dynamical RAM >      11.84MB

     Initial potential from superposition of free atoms

     starting charge    7.99866, renormalised to    8.00000
     Starting wfc are    8 randomized atomic wfcs

     total cpu time spent up to now is        0.5 secs

     per-process dynamical memory:    10.0 Mb

     Self-consistent Calculation

     iteration #  1     ecut=    30.00 Ry     beta=0.70
     Davidson diagonalization with overlap
     ethr =  1.00E-02,  avg # of iterations =  2.0

     Threshold (ethr) on eigenvalues was too large:
     Diagonalizing with lowered threshold

     Davidson diagonalization with overlap
     ethr =  7.28E-04,  avg # of iterations =  1.0

     total cpu time spent up to now is        0.9 secs

     total energy              =     -19.18914652 Ry
     Harris-Foulkes estimate   =     -19.20348966 Ry
     estimated scf accuracy    <       0.05764638 Ry

     iteration #  2     ecut=    30.00 Ry     beta=0.70
     Davidson diagonalization with overlap
     ethr =  7.21E-04,  avg # of iterations =  1.0

     total cpu time spent up to now is        1.5 secs

     total energy              =     -19.19122893 Ry
     Harris-Foulkes estimate   =     -19.19139690 Ry
     estimated scf accuracy    <       0.00243957 Ry

     iteration #  3     ecut=    30.00 Ry     beta=0.70
     Davidson diagonalization with overlap
     ethr =  3.05E-05,  avg # of iterations =  2.1

     total cpu time spent up to now is        1.8 secs

     total energy              =     -19.19160604 Ry
     Harris-Foulkes estimate   =     -19.19162221 Ry
     estimated scf accuracy    <       0.00004940 Ry

     iteration #  4     ecut=    30.00 Ry     beta=0.70
     Davidson diagonalization with overlap
     ethr =  6.18E-07,  avg # of iterations =  3.4

     total cpu time spent up to now is        2.1 secs

     total energy              =     -19.19164779 Ry
     Harris-Foulkes estimate   =     -19.19164926 Ry
     estimated scf accuracy    <       0.00000477 Ry

     iteration #  5     ecut=    30.00 Ry     beta=0.70
     Davidson diagonalization with overlap
     ethr =  5.97E-08,  avg # of iterations =  2.0

     total cpu time spent up to now is        2.3 secs

     total energy              =     -19.19164843 Ry
     Harris-Foulkes estimate   =     -19.19164842 Ry
     estimated scf accuracy    <       0.00000002 Ry

     iteration #  6     ecut=    30.00 Ry     beta=0.70
     Davidson diagonalization with overlap
     ethr =  2.30E-10,  avg # of iterations =  4.0

     total cpu time spent up to now is        2.7 secs

     End of self-consistent calculation

          k =-0.0833 0.0833 0.0833 (   731 PWs)   bands (ev):

    -5.5866   5.5879   6.3003   6.3003

          k =-0.2500 0.2500-0.0833 (   733 PWs)   bands (ev):

    -5.0982   3.4834   5.0304   6.0896

          k =-0.4167 0.4167-0.2500 (   743 PWs)   bands (ev):

    -3.9755   0.6541   4.5652   5.4369

          k = 0.4167-0.4167 0.5833 (   737 PWs)   bands (ev):

    -3.2501  -0.5267   4.6394   5.0445

          k = 0.2500-0.2500 0.4167 (   737 PWs)   bands (ev):

    -4.3997   1.5225   5.1013   5.1515

          k = 0.0833-0.0833 0.2500 (   726 PWs)   bands (ev):

    -5.3401   4.5155   5.6328   5.8384

          k =-0.0833 0.4167 0.0833 (   734 PWs)   bands (ev):

    -4.8513   3.3164   4.8785   4.8832

          k =-0.2500 0.5833-0.0833 (   737 PWs)   bands (ev):

    -3.9172   1.4416   3.5170   4.4888

          k = 0.5833-0.2500 0.7500 (   728 PWs)   bands (ev):

    -2.7622  -0.3706   2.9101   4.2520

          k = 0.4167-0.0833 0.5833 (   734 PWs)   bands (ev):

    -3.5103   0.7262   2.8552   4.7562

          k = 0.2500 0.0833 0.4167 (   737 PWs)   bands (ev):

    -4.6198   2.4486   4.2339   5.4495

          k =-0.0833 0.7500 0.0833 (   734 PWs)   bands (ev):

    -3.1890   0.6144   3.4749   3.8299

          k = 0.7500-0.0833 0.9167 (   734 PWs)   bands (ev):

    -1.9587  -0.7559   2.6005   3.4058

          k = 0.5833 0.0833 0.7500 (   728 PWs)   bands (ev):

    -2.3319  -0.4274   2.1064   3.9679

          k = 0.4167 0.2500 0.5833 (   734 PWs)   bands (ev):

    -3.3917  -0.0004   3.8411   4.8587

          k =-0.0833-0.9167 0.0833 (   734 PWs)   bands (ev):

    -2.0567  -0.7660   3.1974   3.6097

          k =-0.2500-0.7500-0.0833 (   734 PWs)   bands (ev):

    -3.0139   0.3824   2.9381   3.7550

          k =-0.0833-0.5833 0.0833 (   732 PWs)   bands (ev):

    -4.1291   2.0055   4.0383   4.2619

          k =-0.2500 0.2500 0.2500 (   745 PWs)   bands (ev):

    -4.8627   2.4757   5.6723   5.6723

          k =-0.4167 0.4167 0.0833 (   737 PWs)   bands (ev):

    -4.1656   1.5425   3.4809   5.5016

          k = 0.4167-0.4167 0.9167 (   729 PWs)   bands (ev):

    -2.9511   0.0795   2.3377   4.6906

          k = 0.2500-0.2500 0.7500 (   735 PWs)   bands (ev):

    -2.8992  -0.0009   2.8359   4.1936

          k =-0.2500 0.5833 0.2500 (   730 PWs)   bands (ev):

    -3.7296   0.7106   3.9748   4.5766

          k = 0.5833-0.2500 1.0833 (   732 PWs)   bands (ev):

    -2.6989  -0.0232   2.4384   3.7491

          k = 0.4167-0.0833 0.9167 (   726 PWs)   bands (ev):

    -1.8439  -0.7638   2.2592   3.0587

          k =-0.2500-1.0833 0.2500 (   725 PWs)   bands (ev):

    -2.0590  -0.6763   2.1296   3.9942

          k =-0.4167 0.4167 0.4167 (   739 PWs)   bands (ev):

    -3.6338  -0.1145   5.2778   5.2778

          k = 0.4167-0.4167 1.2500 (   737 PWs)   bands (ev):

    -3.0091  -0.4150   3.4024   4.8220

     highest occupied level (ev):     6.3003

!    total energy              =     -19.19164847 Ry
     Harris-Foulkes estimate   =     -19.19164847 Ry
     estimated scf accuracy    <          1.2E-09 Ry

     The total energy is the sum of the following terms:

     one-electron contribution =       5.29699704 Ry
     hartree contribution      =       1.09467001 Ry
     xc contribution           =      -8.65035507 Ry
     ewald contribution        =     -16.93296046 Ry

     convergence has been achieved in   6 iterations

     Writing output data file silicon.10.18.save

     init_run     :      0.32s CPU      0.39s WALL (       1 calls)
     electrons    :      1.52s CPU      2.18s WALL (       1 calls)

     Called by init_run:
     wfcinit      :      0.06s CPU      0.09s WALL (       1 calls)
     potinit      :      0.02s CPU      0.02s WALL (       1 calls)

     Called by electrons:
     c_bands      :      0.91s CPU      1.32s WALL (       7 calls)
     sum_band     :      0.36s CPU      0.53s WALL (       7 calls)
     v_of_rho     :      0.10s CPU      0.14s WALL (       7 calls)
     newd         :      0.14s CPU      0.20s WALL (       7 calls)
     mix_rho      :      0.01s CPU      0.01s WALL (       7 calls)

     Called by c_bands:
     init_us_2    :      0.05s CPU      0.06s WALL (     420 calls)
     cegterg      :      0.78s CPU      1.14s WALL (     196 calls)

     Called by sum_band:
     sum_band:bec :      0.00s CPU      0.00s WALL (     196 calls)
     addusdens    :      0.17s CPU      0.20s WALL (       7 calls)

     Called by *egterg:
     h_psi        :      0.65s CPU      0.96s WALL (     658 calls)
     s_psi        :      0.05s CPU      0.06s WALL (     658 calls)
     g_psi        :      0.00s CPU      0.00s WALL (     434 calls)
     cdiaghg      :      0.04s CPU      0.06s WALL (     602 calls)

     Called by h_psi:
     h_psi:pot    :      0.65s CPU      0.96s WALL (     658 calls)
     h_psi:calbec :      0.07s CPU      0.10s WALL (     658 calls)
     vloc_psi     :      0.53s CPU      0.80s WALL (     658 calls)
     add_vuspsi   :      0.05s CPU      0.06s WALL (     658 calls)

     General routines
     calbec       :      0.10s CPU      0.15s WALL (     854 calls)
     fft          :      0.09s CPU      0.15s WALL (     112 calls)
     ffts         :      0.00s CPU      0.00s WALL (      14 calls)
     fftw         :      0.55s CPU      0.89s WALL (    5686 calls)
     interpolate  :      0.01s CPU      0.02s WALL (      14 calls)
     davcio       :      0.00s CPU      0.00s WALL (      28 calls)

     Parallel routines
     fft_scatter  :      0.31s CPU      0.65s WALL (    5812 calls)

     PWSCF        :     2.05s CPU         2.79s WALL


   This run was terminated on:  10:28:17  10Nov2017            

=------------------------------------------------------------------------------=
   JOB DONE.
=------------------------------------------------------------------------------=
