
     Program PWSCF v.6.1 (svn rev. 13369) starts on 10Nov2017 at 10:31:29 

     This program is part of the open-source Quantum ESPRESSO suite
     for quantum simulation of materials; please cite
         "P. Giannozzi et al., J. Phys.:Condens. Matter 21 395502 (2009);
          URL http://www.quantum-espresso.org", 
     in publications or presentations arising from this work. More details at
     http://www.quantum-espresso.org/quote

     Parallel version (MPI), running on     4 processors
     R & G space division:  proc/nbgrp/npool/nimage =       4
     Waiting for input...
     Reading input from standard input
     Message from routine read_cards :
     DEPRECATED: no units specified in ATOMIC_POSITIONS card
     Message from routine read_cards :
     ATOMIC_POSITIONS: units set to alat

     Current dimensions of program PWSCF are:
     Max number of different atomic species (ntypx) = 10
     Max number of k-points (npk) =  40000
     Max angular momentum in pseudopotentials (lmaxx) =  3

     Subspace diagonalization in iterative solution of the eigenvalue problem:
     a serial algorithm will be used


     Parallelization info
     --------------------
     sticks:   dense  smooth     PW     G-vecs:    dense   smooth      PW
     Min         219     109     37                 4315     1545     301
     Max         220     110     38                 4316     1546     304
     Sum         877     439    151                17261     6183    1211



     bravais-lattice index     =            2
     lattice parameter (alat)  =      10.3340  a.u.
     unit-cell volume          =     275.8960 (a.u.)^3
     number of atoms/cell      =            2
     number of atomic types    =            1
     number of electrons       =         8.00
     number of Kohn-Sham states=            4
     kinetic-energy cutoff     =      30.0000  Ry
     charge density cutoff     =     240.0000  Ry
     convergence threshold     =      1.0E-08
     mixing beta               =       0.7000
     number of iterations used =            8  plain     mixing
     Exchange-correlation      = SLA  PW   PBE  PBE ( 1  4  3  4 0 0)

     celldm(1)=  10.334000  celldm(2)=   0.000000  celldm(3)=   0.000000
     celldm(4)=   0.000000  celldm(5)=   0.000000  celldm(6)=   0.000000

     crystal axes: (cart. coord. in units of alat)
               a(1) = (  -0.500000   0.000000   0.500000 )  
               a(2) = (   0.000000   0.500000   0.500000 )  
               a(3) = (  -0.500000   0.500000   0.000000 )  

     reciprocal axes: (cart. coord. in units 2 pi/alat)
               b(1) = ( -1.000000 -1.000000  1.000000 )  
               b(2) = (  1.000000  1.000000  1.000000 )  
               b(3) = ( -1.000000  1.000000 -1.000000 )  


     PseudoPot. # 1 for Si read from file:
     /home/max/quantum_espresso/qe-6.1/pseudo/si_pbe_v1.uspp.F.UPF.txt
     MD5 check sum: a056efeee980c13900f22a371efd63c1
     Pseudo is Ultrasoft + core correction, Zval =  4.0
     Generated by new atomic code, or converted to UPF format
     Using radial grid of  899 points,  6 beta functions with: 
                l(1) =   0
                l(2) =   0
                l(3) =   1
                l(4) =   1
                l(5) =   2
                l(6) =   2
     Q(r) pseudized with  8 coefficients,  rinner =    0.900   0.900   0.900
                                                       0.900   0.900

     atomic species   valence    mass     pseudopotential
        Si             4.00    28.08600     Si( 1.00)

     48 Sym. Ops., with inversion, found (24 have fractional translation)



   Cartesian axes

     site n.     atom                  positions (alat units)
         1           Si  tau(   1) = (   0.0000000   0.0000000   0.0000000  )
         2           Si  tau(   2) = (   0.2500000   0.2500000   0.2500000  )

     number of k points=    28
                       cart. coord. in units 2pi/alat
        k(    1) = (  -0.0833333   0.0833333   0.0833333), wk =   0.0185185
        k(    2) = (  -0.2500000   0.2500000  -0.0833333), wk =   0.0555556
        k(    3) = (  -0.4166667   0.4166667  -0.2500000), wk =   0.0555556
        k(    4) = (   0.4166667  -0.4166667   0.5833333), wk =   0.0555556
        k(    5) = (   0.2500000  -0.2500000   0.4166667), wk =   0.0555556
        k(    6) = (   0.0833333  -0.0833333   0.2500000), wk =   0.0555556
        k(    7) = (  -0.0833333   0.4166667   0.0833333), wk =   0.0555556
        k(    8) = (  -0.2500000   0.5833333  -0.0833333), wk =   0.1111111
        k(    9) = (   0.5833333  -0.2500000   0.7500000), wk =   0.1111111
        k(   10) = (   0.4166667  -0.0833333   0.5833333), wk =   0.1111111
        k(   11) = (   0.2500000   0.0833333   0.4166667), wk =   0.1111111
        k(   12) = (  -0.0833333   0.7500000   0.0833333), wk =   0.0555556
        k(   13) = (   0.7500000  -0.0833333   0.9166667), wk =   0.1111111
        k(   14) = (   0.5833333   0.0833333   0.7500000), wk =   0.1111111
        k(   15) = (   0.4166667   0.2500000   0.5833333), wk =   0.1111111
        k(   16) = (  -0.0833333  -0.9166667   0.0833333), wk =   0.0555556
        k(   17) = (  -0.2500000  -0.7500000  -0.0833333), wk =   0.1111111
        k(   18) = (  -0.0833333  -0.5833333   0.0833333), wk =   0.0555556
        k(   19) = (  -0.2500000   0.2500000   0.2500000), wk =   0.0185185
        k(   20) = (  -0.4166667   0.4166667   0.0833333), wk =   0.0555556
        k(   21) = (   0.4166667  -0.4166667   0.9166667), wk =   0.0555556
        k(   22) = (   0.2500000  -0.2500000   0.7500000), wk =   0.0555556
        k(   23) = (  -0.2500000   0.5833333   0.2500000), wk =   0.0555556
        k(   24) = (   0.5833333  -0.2500000   1.0833333), wk =   0.1111111
        k(   25) = (   0.4166667  -0.0833333   0.9166667), wk =   0.1111111
        k(   26) = (  -0.2500000  -1.0833333   0.2500000), wk =   0.0555556
        k(   27) = (  -0.4166667   0.4166667   0.4166667), wk =   0.0185185
        k(   28) = (   0.4166667  -0.4166667   1.2500000), wk =   0.0555556

     Dense  grid:    17261 G-vectors     FFT dimensions: (  40,  40,  40)

     Smooth grid:     6183 G-vectors     FFT dimensions: (  25,  25,  25)

     Estimated max dynamical RAM per process >       3.35MB

     Estimated total allocated dynamical RAM >      13.41MB

     Initial potential from superposition of free atoms

     starting charge    7.99866, renormalised to    8.00000
     Starting wfc are    8 randomized atomic wfcs

     total cpu time spent up to now is        0.5 secs

     per-process dynamical memory:     9.8 Mb

     Self-consistent Calculation

     iteration #  1     ecut=    30.00 Ry     beta=0.70
     Davidson diagonalization with overlap
     ethr =  1.00E-02,  avg # of iterations =  2.0

     Threshold (ethr) on eigenvalues was too large:
     Diagonalizing with lowered threshold

     Davidson diagonalization with overlap
     ethr =  6.77E-04,  avg # of iterations =  1.0

     total cpu time spent up to now is        1.4 secs

     total energy              =     -19.19123739 Ry
     Harris-Foulkes estimate   =     -19.20368342 Ry
     estimated scf accuracy    <       0.05364918 Ry

     iteration #  2     ecut=    30.00 Ry     beta=0.70
     Davidson diagonalization with overlap
     ethr =  6.71E-04,  avg # of iterations =  1.0

     total cpu time spent up to now is        1.6 secs

     total energy              =     -19.19299702 Ry
     Harris-Foulkes estimate   =     -19.19316605 Ry
     estimated scf accuracy    <       0.00244675 Ry

     iteration #  3     ecut=    30.00 Ry     beta=0.70
     Davidson diagonalization with overlap
     ethr =  3.06E-05,  avg # of iterations =  2.2

     total cpu time spent up to now is        1.8 secs

     total energy              =     -19.19333074 Ry
     Harris-Foulkes estimate   =     -19.19334364 Ry
     estimated scf accuracy    <       0.00004213 Ry

     iteration #  4     ecut=    30.00 Ry     beta=0.70
     Davidson diagonalization with overlap
     ethr =  5.27E-07,  avg # of iterations =  3.3

     total cpu time spent up to now is        2.1 secs

     total energy              =     -19.19336930 Ry
     Harris-Foulkes estimate   =     -19.19337012 Ry
     estimated scf accuracy    <       0.00000303 Ry

     iteration #  5     ecut=    30.00 Ry     beta=0.70
     Davidson diagonalization with overlap
     ethr =  3.79E-08,  avg # of iterations =  2.0

     total cpu time spent up to now is        2.4 secs

     total energy              =     -19.19336970 Ry
     Harris-Foulkes estimate   =     -19.19336969 Ry
     estimated scf accuracy    <       0.00000001 Ry

     iteration #  6     ecut=    30.00 Ry     beta=0.70
     Davidson diagonalization with overlap
     ethr =  1.25E-10,  avg # of iterations =  4.0

     total cpu time spent up to now is        2.9 secs

     End of self-consistent calculation

          k =-0.0833 0.0833 0.0833 (   749 PWs)   bands (ev):

    -5.7503   5.1183   5.8364   5.8364

          k =-0.2500 0.2500-0.0833 (   772 PWs)   bands (ev):

    -5.2808   3.0522   4.6197   5.6271

          k =-0.4167 0.4167-0.2500 (   768 PWs)   bands (ev):

    -4.2069   0.3281   4.1570   4.9988

          k = 0.4167-0.4167 0.5833 (   767 PWs)   bands (ev):

    -3.5239  -0.7952   4.2198   4.6245

          k = 0.2500-0.2500 0.4167 (   774 PWs)   bands (ev):

    -4.6113   1.1622   4.6856   4.7120

          k = 0.0833-0.0833 0.2500 (   775 PWs)   bands (ev):

    -5.5132   4.0522   5.2016   5.3797

          k =-0.0833 0.4167 0.0833 (   775 PWs)   bands (ev):

    -5.0432   2.8552   4.4635   4.4825

          k =-0.2500 0.5833-0.0833 (   770 PWs)   bands (ev):

    -4.1472   1.0361   3.1680   4.1003

          k = 0.5833-0.2500 0.7500 (   763 PWs)   bands (ev):

    -3.0532  -0.6812   2.5705   3.8780

          k = 0.4167-0.0833 0.5833 (   768 PWs)   bands (ev):

    -3.7600   0.3555   2.5350   4.3552

          k = 0.2500 0.0833 0.4167 (   771 PWs)   bands (ev):

    -4.8214   2.0344   3.8541   5.0105

          k =-0.0833 0.7500 0.0833 (   769 PWs)   bands (ev):

    -3.4458   0.2111   3.1352   3.4676

          k = 0.7500-0.0833 0.9167 (   758 PWs)   bands (ev):

    -2.2700  -1.1112   2.3103   3.0699

          k = 0.5833 0.0833 0.7500 (   759 PWs)   bands (ev):

    -2.6392  -0.7730   1.8335   3.6064

          k = 0.4167 0.2500 0.5833 (   768 PWs)   bands (ev):

    -3.6516  -0.3074   3.4543   4.4507

          k =-0.0833-0.9167 0.0833 (   764 PWs)   bands (ev):

    -2.3585  -1.1182   2.8700   3.2551

          k =-0.2500-0.7500-0.0833 (   766 PWs)   bands (ev):

    -3.2810  -0.0077   2.6238   3.4053

          k =-0.0833-0.5833 0.0833 (   767 PWs)   bands (ev):

    -4.3490   1.5618   3.6703   3.8843

          k =-0.2500 0.2500 0.2500 (   769 PWs)   bands (ev):

    -5.0550   2.0888   5.2307   5.2307

          k =-0.4167 0.4167 0.0833 (   767 PWs)   bands (ev):

    -4.3867   1.1570   3.1321   5.0625

          k = 0.4167-0.4167 0.9167 (   769 PWs)   bands (ev):

    -3.2286  -0.2705   2.0449   4.2893

          k = 0.2500-0.2500 0.7500 (   763 PWs)   bands (ev):

    -3.1763  -0.3491   2.5134   3.8153

          k =-0.2500 0.5833 0.2500 (   773 PWs)   bands (ev):

    -3.9699   0.3627   3.5824   4.1830

          k = 0.5833-0.2500 1.0833 (   761 PWs)   bands (ev):

    -2.9848  -0.3882   2.1444   3.4047

          k = 0.4167-0.0833 0.9167 (   755 PWs)   bands (ev):

    -2.1677  -1.1189   1.9873   2.7497

          k =-0.2500-1.0833 0.2500 (   760 PWs)   bands (ev):

    -2.3756  -1.0217   1.8629   3.6236

          k =-0.4167 0.4167 0.4167 (   769 PWs)   bands (ev):

    -3.8849  -0.4014   4.8459   4.8459

          k = 0.4167-0.4167 1.2500 (   768 PWs)   bands (ev):

    -3.2915  -0.7040   3.0359   4.4138

     highest occupied level (ev):     5.8364

!    total energy              =     -19.19336973 Ry
     Harris-Foulkes estimate   =     -19.19336973 Ry
     estimated scf accuracy    <          6.7E-10 Ry

     The total energy is the sum of the following terms:

     one-electron contribution =       4.94972956 Ry
     hartree contribution      =       1.13404070 Ry
     xc contribution           =      -8.59651898 Ry
     ewald contribution        =     -16.68062100 Ry

     convergence has been achieved in   6 iterations

     Writing output data file silicon.10.334.save

     init_run     :      0.35s CPU      0.39s WALL (       1 calls)
     electrons    :      1.68s CPU      2.43s WALL (       1 calls)

     Called by init_run:
     wfcinit      :      0.08s CPU      0.09s WALL (       1 calls)
     potinit      :      0.03s CPU      0.03s WALL (       1 calls)

     Called by electrons:
     c_bands      :      1.00s CPU      1.35s WALL (       7 calls)
     sum_band     :      0.42s CPU      0.73s WALL (       7 calls)
     v_of_rho     :      0.13s CPU      0.16s WALL (       7 calls)
     newd         :      0.15s CPU      0.18s WALL (       7 calls)
     mix_rho      :      0.01s CPU      0.01s WALL (       7 calls)

     Called by c_bands:
     init_us_2    :      0.06s CPU      0.07s WALL (     420 calls)
     cegterg      :      0.85s CPU      1.16s WALL (     196 calls)

     Called by sum_band:
     sum_band:bec :      0.00s CPU      0.00s WALL (     196 calls)
     addusdens    :      0.16s CPU      0.25s WALL (       7 calls)

     Called by *egterg:
     h_psi        :      0.73s CPU      0.98s WALL (     659 calls)
     s_psi        :      0.05s CPU      0.06s WALL (     659 calls)
     g_psi        :      0.00s CPU      0.00s WALL (     435 calls)
     cdiaghg      :      0.04s CPU      0.05s WALL (     603 calls)

     Called by h_psi:
     h_psi:pot    :      0.72s CPU      0.98s WALL (     659 calls)
     h_psi:calbec :      0.09s CPU      0.13s WALL (     659 calls)
     vloc_psi     :      0.58s CPU      0.79s WALL (     659 calls)
     add_vuspsi   :      0.05s CPU      0.06s WALL (     659 calls)

     General routines
     calbec       :      0.12s CPU      0.19s WALL (     855 calls)
     fft          :      0.09s CPU      0.17s WALL (     112 calls)
     ffts         :      0.00s CPU      0.01s WALL (      14 calls)
     fftw         :      0.64s CPU      0.98s WALL (    5710 calls)
     interpolate  :      0.01s CPU      0.03s WALL (      14 calls)
     davcio       :      0.00s CPU      0.00s WALL (      28 calls)

     Parallel routines
     fft_scatter  :      0.38s CPU      0.76s WALL (    5836 calls)

     PWSCF        :     2.25s CPU         3.14s WALL


   This run was terminated on:  10:31:32  10Nov2017            

=------------------------------------------------------------------------------=
   JOB DONE.
=------------------------------------------------------------------------------=
