
     Program PHONON v.6.1 (svn rev. 13369) starts on  9Nov2017 at 12: 3:16 

     This program is part of the open-source Quantum ESPRESSO suite
     for quantum simulation of materials; please cite
         "P. Giannozzi et al., J. Phys.:Condens. Matter 21 395502 (2009);
          URL http://www.quantum-espresso.org", 
     in publications or presentations arising from this work. More details at
     http://www.quantum-espresso.org/quote

     Parallel version (MPI), running on     4 processors
     R & G space division:  proc/nbgrp/npool/nimage =       4

     Reading data from directory:
     ./silicon.10.322.save

   Info: using nr1, nr2, nr3 values from input

   Info: using nr1, nr2, nr3 values from input

     IMPORTANT: XC functional enforced from input :
     Exchange-correlation      = SLA  PW   PBE  PBE ( 1  4  3  4 0 0)
     Any further DFT definition will be discarded
     Please, verify this is what you really want


     Parallelization info
     --------------------
     sticks:   dense  smooth     PW     G-vecs:    dense   smooth      PW
     Min          63      63     22                  684      684     140
     Max          64      64     23                  688      688     141
     Sum         253     253     91                 2741     2741     561


     Check: negative/imaginary core charge=   -0.000005    0.000000


     Dynamical matrices for ( 4, 4, 4)  uniform grid of q-points
     (   8q-points):
       N         xq(1)         xq(2)         xq(3) 
       1   0.000000000   0.000000000   0.000000000
       2  -0.250000000   0.250000000  -0.250000000
       3   0.500000000  -0.500000000   0.500000000
       4   0.000000000   0.500000000   0.000000000
       5   0.750000000  -0.250000000   0.750000000
       6   0.500000000   0.000000000   0.500000000
       7   0.000000000  -1.000000000   0.000000000
       8  -0.500000000  -1.000000000   0.000000000

     Calculation of q =    0.0000000   0.0000000   0.0000000

                                                                                

     bravais-lattice index     =            2
     lattice parameter (alat)  =      10.3220  a.u.
     unit-cell volume          =     274.9360 (a.u.)^3
     number of atoms/cell      =            2
     number of atomic types    =            1
     kinetic-energy cut-off    =      18.0000  Ry
     charge density cut-off    =      72.0000  Ry
     convergence threshold     =      1.0E-12
     beta                      =       0.7000
     number of iterations used =            4
     Exchange-correlation      = SLA  PW   PBE  PBE ( 1  4  3  4 0 0)


     celldm(1)=   10.32200  celldm(2)=    0.00000  celldm(3)=    0.00000
     celldm(4)=    0.00000  celldm(5)=    0.00000  celldm(6)=    0.00000

     crystal axes: (cart. coord. in units of alat)
               a(1) = ( -0.5000  0.0000  0.5000 )  
               a(2) = (  0.0000  0.5000  0.5000 )  
               a(3) = ( -0.5000  0.5000  0.0000 )  

     reciprocal axes: (cart. coord. in units 2 pi/alat)
               b(1) = ( -1.0000 -1.0000  1.0000 )  
               b(2) = (  1.0000  1.0000  1.0000 )  
               b(3) = ( -1.0000  1.0000 -1.0000 )  


     Atoms inside the unit cell: 

     Cartesian axes

     site n.  atom      mass           positions (alat units)
        1     Si  28.0860   tau(    1) = (    0.00000    0.00000    0.00000  )
        2     Si  28.0860   tau(    2) = (    0.25000    0.25000    0.25000  )

     Computing dynamical matrix for 
                    q = (   0.0000000   0.0000000   0.0000000 )

     49 Sym.Ops. (with q -> -q+G )


     G cutoff =  194.3124  (    685 G-vectors)     FFT grid: ( 20, 20, 20)
     number of k points=    10

     PseudoPot. # 1 for Si read from file:
     /home/max/quantum_espresso/qe-6.1/pseudo/si_pbe_v1.uspp.F.UPF.txt
     MD5 check sum: a056efeee980c13900f22a371efd63c1
     Pseudo is Ultrasoft + core correction, Zval =  4.0
     Generated by new atomic code, or converted to UPF format
     Using radial grid of  899 points,  6 beta functions with: 
                l(1) =   0
                l(2) =   0
                l(3) =   1
                l(4) =   1
                l(5) =   2
                l(6) =   2
     Q(r) pseudized with  8 coefficients,  rinner =    0.900   0.900   0.900
                                                       0.900   0.900

     Mode symmetry, O_h (m-3m)  point group:


     Electric field:
     Dielectric constant
     Born effective charges in two ways 


     Atomic displacements:
     There are   2 irreducible representations

     Representation     1      3 modes -T_2g G_25' G_5+  To be done

     Representation     2      3 modes -T_1u G_15  G_4-  To be done



     Alpha used in Ewald sum =   0.7000
     PHONON       :     0.41s CPU         0.43s WALL


     Electric Fields Calculation

      iter #   1 total cpu time :     1.2 secs   av.it.:   5.6
      thresh= 1.000E-02 alpha_mix =  0.700 |ddv_scf|^2 =  9.054E-07

      iter #   2 total cpu time :     1.4 secs   av.it.:   9.9
      thresh= 9.515E-05 alpha_mix =  0.700 |ddv_scf|^2 =  5.555E-08

      iter #   3 total cpu time :     1.6 secs   av.it.:   9.8
      thresh= 2.357E-05 alpha_mix =  0.700 |ddv_scf|^2 =  4.218E-09

      iter #   4 total cpu time :     1.8 secs   av.it.:   9.0
      thresh= 6.495E-06 alpha_mix =  0.700 |ddv_scf|^2 =  2.472E-11

      iter #   5 total cpu time :     2.0 secs   av.it.:   9.1
      thresh= 4.972E-07 alpha_mix =  0.700 |ddv_scf|^2 =  1.318E-14

     End of electric fields calculation

          Dielectric constant in cartesian axis 

          (      13.848374814      -0.000000000      -0.000000000 )
          (      -0.000000000      13.848374814       0.000000000 )
          (      -0.000000000       0.000000000      13.848374814 )

          Effective charges (d Force / dE) in cartesian axis

           atom      1   Si 
      Ex  (       -0.03126        0.00000        0.00000 )
      Ey  (        0.00000       -0.03126        0.00000 )
      Ez  (        0.00000        0.00000       -0.03126 )
           atom      2   Si 
      Ex  (       -0.03126       -0.00000       -0.00000 )
      Ey  (       -0.00000       -0.03126        0.00000 )
      Ez  (       -0.00000        0.00000       -0.03126 )


     Representation #  1 modes #   1  2  3

     Self-consistent Calculation

      iter #   1 total cpu time :     2.4 secs   av.it.:   4.9
      thresh= 1.000E-02 alpha_mix =  0.700 |ddv_scf|^2 =  2.239E-07

      iter #   2 total cpu time :     2.6 secs   av.it.:   9.7
      thresh= 4.732E-05 alpha_mix =  0.700 |ddv_scf|^2 =  1.383E-08

      iter #   3 total cpu time :     3.2 secs   av.it.:   9.3
      thresh= 1.176E-05 alpha_mix =  0.700 |ddv_scf|^2 =  8.548E-10

      iter #   4 total cpu time :     3.4 secs   av.it.:   9.0
      thresh= 2.924E-06 alpha_mix =  0.700 |ddv_scf|^2 =  1.877E-12

      iter #   5 total cpu time :     3.6 secs   av.it.:   9.4
      thresh= 1.370E-07 alpha_mix =  0.700 |ddv_scf|^2 =  1.223E-14

     End of self-consistent calculation

     Convergence has been achieved 


     Representation #  2 modes #   4  5  6

     Self-consistent Calculation

      iter #   1 total cpu time :     3.8 secs   av.it.:   5.0
      thresh= 1.000E-02 alpha_mix =  0.700 |ddv_scf|^2 =  1.701E-07

      iter #   2 total cpu time :     4.0 secs   av.it.:   9.6
      thresh= 4.124E-05 alpha_mix =  0.700 |ddv_scf|^2 =  1.325E-08

      iter #   3 total cpu time :     4.2 secs   av.it.:   9.3
      thresh= 1.151E-05 alpha_mix =  0.700 |ddv_scf|^2 =  8.443E-10

      iter #   4 total cpu time :     4.4 secs   av.it.:   9.5
      thresh= 2.906E-06 alpha_mix =  0.700 |ddv_scf|^2 =  5.062E-12

      iter #   5 total cpu time :     4.6 secs   av.it.:   9.0
      thresh= 2.250E-07 alpha_mix =  0.700 |ddv_scf|^2 =  4.405E-15

     End of self-consistent calculation

     Convergence has been achieved 

     Number of q in the star =    1
     List of q in the star:
          1   0.000000000   0.000000000   0.000000000

          Dielectric constant in cartesian axis 

          (      13.848374814      -0.000000000      -0.000000000 )
          (      -0.000000000      13.848374814       0.000000000 )
          (      -0.000000000       0.000000000      13.848374814 )

          Effective charges (d Force / dE) in cartesian axis

           atom      1   Si 
      Ex  (       -0.03126        0.00000        0.00000 )
      Ey  (        0.00000       -0.03126        0.00000 )
      Ez  (        0.00000        0.00000       -0.03126 )
           atom      2   Si 
      Ex  (       -0.03126       -0.00000       -0.00000 )
      Ey  (       -0.00000       -0.03126        0.00000 )
      Ez  (       -0.00000        0.00000       -0.03126 )

          Effective charges (d P / du) in cartesian axis 

           atom      1   Si 
      Px  (       -0.07213       -0.00000        0.00000 )
      Py  (       -0.00000       -0.07213        0.00000 )
      Pz  (        0.00000        0.00000       -0.07213 )
           atom      2   Si 
      Px  (       -0.07213       -0.00000        0.00000 )
      Py  (        0.00000       -0.07213        0.00000 )
      Pz  (       -0.00000        0.00000       -0.07213 )

     Diagonalizing the dynamical matrix

     q = (    0.000000000   0.000000000   0.000000000 ) 

 **************************************************************************
     freq (    1) =       1.943587 [THz] =      64.831092 [cm-1]
     freq (    2) =       1.943587 [THz] =      64.831092 [cm-1]
     freq (    3) =       1.943587 [THz] =      64.831092 [cm-1]
     freq (    4) =      15.063652 [THz] =     502.469332 [cm-1]
     freq (    5) =      15.063652 [THz] =     502.469332 [cm-1]
     freq (    6) =      15.063652 [THz] =     502.469332 [cm-1]
 **************************************************************************

     Mode symmetry, O_h (m-3m)  point group:

     freq (  1 -  3) =         64.8  [cm-1]   --> T_1u G_15  G_4- I  
     freq (  4 -  6) =        502.5  [cm-1]   --> T_2g G_25' G_5+ R  

     Calculation of q =   -0.2500000   0.2500000  -0.2500000

   Info: using nr1, nr2, nr3 values from input

   Info: using nr1, nr2, nr3 values from input

     Parallelization info
     --------------------
     sticks:   dense  smooth     PW     G-vecs:    dense   smooth      PW
     Min          63      63     24                  684      684     161
     Max          64      64     25                  688      688     162
     Sum         253     253     97                 2741     2741     645



     bravais-lattice index     =            2
     lattice parameter (alat)  =      10.3220  a.u.
     unit-cell volume          =     274.9360 (a.u.)^3
     number of atoms/cell      =            2
     number of atomic types    =            1
     number of electrons       =         8.00
     number of Kohn-Sham states=            4
     kinetic-energy cutoff     =      18.0000  Ry
     charge density cutoff     =      72.0000  Ry
     Exchange-correlation      = SLA  PW   PBE  PBE ( 1  4  3  4 0 0)

     celldm(1)=  10.322000  celldm(2)=   0.000000  celldm(3)=   0.000000
     celldm(4)=   0.000000  celldm(5)=   0.000000  celldm(6)=   0.000000

     crystal axes: (cart. coord. in units of alat)
               a(1) = (  -0.500000   0.000000   0.500000 )  
               a(2) = (   0.000000   0.500000   0.500000 )  
               a(3) = (  -0.500000   0.500000   0.000000 )  

     reciprocal axes: (cart. coord. in units 2 pi/alat)
               b(1) = ( -1.000000 -1.000000  1.000000 )  
               b(2) = (  1.000000  1.000000  1.000000 )  
               b(3) = ( -1.000000  1.000000 -1.000000 )  


     PseudoPot. # 1 for Si read from file:
     /home/max/quantum_espresso/qe-6.1/pseudo/si_pbe_v1.uspp.F.UPF.txt
     MD5 check sum: a056efeee980c13900f22a371efd63c1
     Pseudo is Ultrasoft + core correction, Zval =  4.0
     Generated by new atomic code, or converted to UPF format
     Using radial grid of  899 points,  6 beta functions with: 
                l(1) =   0
                l(2) =   0
                l(3) =   1
                l(4) =   1
                l(5) =   2
                l(6) =   2
     Q(r) pseudized with  8 coefficients,  rinner =    0.900   0.900   0.900
                                                       0.900   0.900

     atomic species   valence    mass     pseudopotential
        Si             4.00    28.08600     Si( 1.00)

     48 Sym. Ops., with inversion, found



   Cartesian axes

     site n.     atom                  positions (alat units)
         1           Si  tau(   1) = (   0.0000000   0.0000000   0.0000000  )
         2           Si  tau(   2) = (   0.2500000   0.2500000   0.2500000  )

     number of k points=   120

     Number of k-points >= 100: set verbosity='high' to print them.

     Dense  grid:     2741 G-vectors     FFT dimensions: (  20,  20,  20)

     Estimated max dynamical RAM per process >       0.33MB

     Estimated total allocated dynamical RAM >       1.30MB

     Check: negative/imaginary core charge=   -0.000005    0.000000

     The potential is recalculated from file :
     ./_ph0/silicon.10.322.save/charge-density.dat

     Starting wfc are    8 atomic wfcs

     Band Structure Calculation
     Davidson diagonalization with overlap

     ethr =  1.25E-10,  avg # of iterations = 11.7

     total cpu time spent up to now is        1.1 secs

     End of band structure calculation

     Number of k-points >= 100: set verbosity='high' to print the bands.

     highest occupied level (ev):     5.7335

     Writing output data file silicon.10.322.save

                                                                                

     bravais-lattice index     =            2
     lattice parameter (alat)  =      10.3220  a.u.
     unit-cell volume          =     274.9360 (a.u.)^3
     number of atoms/cell      =            2
     number of atomic types    =            1
     kinetic-energy cut-off    =      18.0000  Ry
     charge density cut-off    =      72.0000  Ry
     convergence threshold     =      1.0E-12
     beta                      =       0.7000
     number of iterations used =            4
     Exchange-correlation      = SLA  PW   PBE  PBE ( 1  4  3  4 0 0)


     celldm(1)=   10.32200  celldm(2)=    0.00000  celldm(3)=    0.00000
     celldm(4)=    0.00000  celldm(5)=    0.00000  celldm(6)=    0.00000

     crystal axes: (cart. coord. in units of alat)
               a(1) = ( -0.5000  0.0000  0.5000 )  
               a(2) = (  0.0000  0.5000  0.5000 )  
               a(3) = ( -0.5000  0.5000  0.0000 )  

     reciprocal axes: (cart. coord. in units 2 pi/alat)
               b(1) = ( -1.0000 -1.0000  1.0000 )  
               b(2) = (  1.0000  1.0000  1.0000 )  
               b(3) = ( -1.0000  1.0000 -1.0000 )  


     Atoms inside the unit cell: 

     Cartesian axes

     site n.  atom      mass           positions (alat units)
        1     Si  28.0860   tau(    1) = (    0.00000    0.00000    0.00000  )
        2     Si  28.0860   tau(    2) = (    0.25000    0.25000    0.25000  )

     Computing dynamical matrix for 
                    q = (  -0.2500000   0.2500000  -0.2500000 )

      6 Sym.Ops. (no q -> -q+G )


     G cutoff =  194.3124  (    685 G-vectors)     FFT grid: ( 20, 20, 20)
     number of k points=   120

     PseudoPot. # 1 for Si read from file:
     /home/max/quantum_espresso/qe-6.1/pseudo/si_pbe_v1.uspp.F.UPF.txt
     MD5 check sum: a056efeee980c13900f22a371efd63c1
     Pseudo is Ultrasoft + core correction, Zval =  4.0
     Generated by new atomic code, or converted to UPF format
     Using radial grid of  899 points,  6 beta functions with: 
                l(1) =   0
                l(2) =   0
                l(3) =   1
                l(4) =   1
                l(5) =   2
                l(6) =   2
     Q(r) pseudized with  8 coefficients,  rinner =    0.900   0.900   0.900
                                                       0.900   0.900

     Mode symmetry, C_3v (3m)   point group:


     Atomic displacements:
     There are   4 irreducible representations

     Representation     1      1 modes -A_1  L_1  To be done

     Representation     2      1 modes -A_1  L_1  To be done

     Representation     3      2 modes -E    L_3  To be done

     Representation     4      2 modes -E    L_3  To be done



     Alpha used in Ewald sum =   0.7000
     PHONON       :     5.47s CPU         6.36s WALL



     Representation #  1 mode #   1

     Self-consistent Calculation

      iter #   1 total cpu time :     6.6 secs   av.it.:   5.5
      thresh= 1.000E-02 alpha_mix =  0.700 |ddv_scf|^2 =  2.479E-03

      iter #   2 total cpu time :     7.3 secs   av.it.:   7.5
      thresh= 4.979E-03 alpha_mix =  0.700 |ddv_scf|^2 =  3.736E-02

      iter #   3 total cpu time :     7.6 secs   av.it.:   6.3
      thresh= 1.000E-02 alpha_mix =  0.700 |ddv_scf|^2 =  1.715E-06

      iter #   4 total cpu time :     7.9 secs   av.it.:   8.2
      thresh= 1.310E-04 alpha_mix =  0.700 |ddv_scf|^2 =  1.142E-07

      iter #   5 total cpu time :     8.2 secs   av.it.:   8.1
      thresh= 3.379E-05 alpha_mix =  0.700 |ddv_scf|^2 =  4.374E-09

      iter #   6 total cpu time :     8.5 secs   av.it.:   8.0
      thresh= 6.614E-06 alpha_mix =  0.700 |ddv_scf|^2 =  5.531E-09

      iter #   7 total cpu time :     8.8 secs   av.it.:   6.0
      thresh= 7.437E-06 alpha_mix =  0.700 |ddv_scf|^2 =  3.636E-10

      iter #   8 total cpu time :     9.4 secs   av.it.:   7.4
      thresh= 1.907E-06 alpha_mix =  0.700 |ddv_scf|^2 =  3.757E-12

      iter #   9 total cpu time :     9.7 secs   av.it.:   7.2
      thresh= 1.938E-07 alpha_mix =  0.700 |ddv_scf|^2 =  1.313E-13

     End of self-consistent calculation

     Convergence has been achieved 


     Representation #  2 mode #   2

     Self-consistent Calculation

      iter #   1 total cpu time :     9.9 secs   av.it.:   5.5
      thresh= 1.000E-02 alpha_mix =  0.700 |ddv_scf|^2 =  2.479E-03

      iter #   2 total cpu time :    10.2 secs   av.it.:   7.5
      thresh= 4.979E-03 alpha_mix =  0.700 |ddv_scf|^2 =  3.736E-02

      iter #   3 total cpu time :    10.5 secs   av.it.:   6.3
      thresh= 1.000E-02 alpha_mix =  0.700 |ddv_scf|^2 =  1.715E-06

      iter #   4 total cpu time :    11.0 secs   av.it.:   8.2
      thresh= 1.310E-04 alpha_mix =  0.700 |ddv_scf|^2 =  1.142E-07

      iter #   5 total cpu time :    11.5 secs   av.it.:   8.1
      thresh= 3.379E-05 alpha_mix =  0.700 |ddv_scf|^2 =  4.374E-09

      iter #   6 total cpu time :    11.8 secs   av.it.:   8.0
      thresh= 6.614E-06 alpha_mix =  0.700 |ddv_scf|^2 =  5.531E-09

      iter #   7 total cpu time :    12.0 secs   av.it.:   6.0
      thresh= 7.437E-06 alpha_mix =  0.700 |ddv_scf|^2 =  3.636E-10

      iter #   8 total cpu time :    12.3 secs   av.it.:   7.4
      thresh= 1.907E-06 alpha_mix =  0.700 |ddv_scf|^2 =  3.757E-12

      iter #   9 total cpu time :    12.6 secs   av.it.:   7.2
      thresh= 1.938E-07 alpha_mix =  0.700 |ddv_scf|^2 =  1.313E-13

     End of self-consistent calculation

     Convergence has been achieved 


     Representation #  3 modes #   3  4

     Self-consistent Calculation

      iter #   1 total cpu time :    13.4 secs   av.it.:   5.0
      thresh= 1.000E-02 alpha_mix =  0.700 |ddv_scf|^2 =  5.544E-07

      iter #   2 total cpu time :    14.1 secs   av.it.:   9.5
      thresh= 7.446E-05 alpha_mix =  0.700 |ddv_scf|^2 =  4.088E-08

      iter #   3 total cpu time :    14.9 secs   av.it.:   9.2
      thresh= 2.022E-05 alpha_mix =  0.700 |ddv_scf|^2 =  3.503E-09

      iter #   4 total cpu time :    15.8 secs   av.it.:   9.0
      thresh= 5.919E-06 alpha_mix =  0.700 |ddv_scf|^2 =  1.079E-11

      iter #   5 total cpu time :    16.4 secs   av.it.:   9.1
      thresh= 3.285E-07 alpha_mix =  0.700 |ddv_scf|^2 =  4.928E-13

     End of self-consistent calculation

     Convergence has been achieved 


     Representation #  4 modes #   5  6

     Self-consistent Calculation

      iter #   1 total cpu time :    17.3 secs   av.it.:   5.0
      thresh= 1.000E-02 alpha_mix =  0.700 |ddv_scf|^2 =  5.542E-07

      iter #   2 total cpu time :    18.0 secs   av.it.:   9.7
      thresh= 7.445E-05 alpha_mix =  0.700 |ddv_scf|^2 =  4.084E-08

      iter #   3 total cpu time :    18.7 secs   av.it.:   9.4
      thresh= 2.021E-05 alpha_mix =  0.700 |ddv_scf|^2 =  3.501E-09

      iter #   4 total cpu time :    19.6 secs   av.it.:   9.1
      thresh= 5.917E-06 alpha_mix =  0.700 |ddv_scf|^2 =  1.080E-11

      iter #   5 total cpu time :    20.3 secs   av.it.:   9.2
      thresh= 3.286E-07 alpha_mix =  0.700 |ddv_scf|^2 =  4.934E-13

     End of self-consistent calculation

     Convergence has been achieved 

     Number of q in the star =    8
     List of q in the star:
          1  -0.250000000   0.250000000  -0.250000000
          2   0.250000000  -0.250000000  -0.250000000
          3   0.250000000  -0.250000000   0.250000000
          4   0.250000000   0.250000000   0.250000000
          5  -0.250000000  -0.250000000  -0.250000000
          6  -0.250000000  -0.250000000   0.250000000
          7  -0.250000000   0.250000000   0.250000000
          8   0.250000000   0.250000000  -0.250000000

     Diagonalizing the dynamical matrix

     q = (   -0.250000000   0.250000000  -0.250000000 ) 

 **************************************************************************
     freq (    1) =       3.383700 [THz] =     112.868082 [cm-1]
     freq (    2) =       3.383700 [THz] =     112.868082 [cm-1]
     freq (    3) =       6.955669 [THz] =     232.016148 [cm-1]
     freq (    4) =      14.136434 [THz] =     471.540683 [cm-1]
     freq (    5) =      14.454257 [THz] =     482.142115 [cm-1]
     freq (    6) =      14.454257 [THz] =     482.142115 [cm-1]
 **************************************************************************

     Mode symmetry, C_3v (3m)   point group:

     freq (  1 -  2) =        112.9  [cm-1]   --> E    L_3           
     freq (  3 -  3) =        232.0  [cm-1]   --> A_1  L_1           
     freq (  4 -  4) =        471.5  [cm-1]   --> A_1  L_1           
     freq (  5 -  6) =        482.1  [cm-1]   --> E    L_3           

     Calculation of q =    0.5000000  -0.5000000   0.5000000

   Info: using nr1, nr2, nr3 values from input

   Info: using nr1, nr2, nr3 values from input

     Parallelization info
     --------------------
     sticks:   dense  smooth     PW     G-vecs:    dense   smooth      PW
     Min          63      63     27                  684      684     186
     Max          64      64     28                  688      688     189
     Sum         253     253    109                 2741     2741     749



     bravais-lattice index     =            2
     lattice parameter (alat)  =      10.3220  a.u.
     unit-cell volume          =     274.9360 (a.u.)^3
     number of atoms/cell      =            2
     number of atomic types    =            1
     number of electrons       =         8.00
     number of Kohn-Sham states=            4
     kinetic-energy cutoff     =      18.0000  Ry
     charge density cutoff     =      72.0000  Ry
     Exchange-correlation      = SLA  PW   PBE  PBE ( 1  4  3  4 0 0)

     celldm(1)=  10.322000  celldm(2)=   0.000000  celldm(3)=   0.000000
     celldm(4)=   0.000000  celldm(5)=   0.000000  celldm(6)=   0.000000

     crystal axes: (cart. coord. in units of alat)
               a(1) = (  -0.500000   0.000000   0.500000 )  
               a(2) = (   0.000000   0.500000   0.500000 )  
               a(3) = (  -0.500000   0.500000   0.000000 )  

     reciprocal axes: (cart. coord. in units 2 pi/alat)
               b(1) = ( -1.000000 -1.000000  1.000000 )  
               b(2) = (  1.000000  1.000000  1.000000 )  
               b(3) = ( -1.000000  1.000000 -1.000000 )  


     PseudoPot. # 1 for Si read from file:
     /home/max/quantum_espresso/qe-6.1/pseudo/si_pbe_v1.uspp.F.UPF.txt
     MD5 check sum: a056efeee980c13900f22a371efd63c1
     Pseudo is Ultrasoft + core correction, Zval =  4.0
     Generated by new atomic code, or converted to UPF format
     Using radial grid of  899 points,  6 beta functions with: 
                l(1) =   0
                l(2) =   0
                l(3) =   1
                l(4) =   1
                l(5) =   2
                l(6) =   2
     Q(r) pseudized with  8 coefficients,  rinner =    0.900   0.900   0.900
                                                       0.900   0.900

     atomic species   valence    mass     pseudopotential
        Si             4.00    28.08600     Si( 1.00)

     48 Sym. Ops., with inversion, found



   Cartesian axes

     site n.     atom                  positions (alat units)
         1           Si  tau(   1) = (   0.0000000   0.0000000   0.0000000  )
         2           Si  tau(   2) = (   0.2500000   0.2500000   0.2500000  )

     number of k points=    60
                       cart. coord. in units 2pi/alat
        k(    1) = (  -0.1250000   0.1250000   0.1250000), wk =   0.0468750
        k(    2) = (   0.3750000  -0.3750000   0.6250000), wk =   0.0000000
        k(    3) = (  -0.3750000   0.3750000  -0.1250000), wk =   0.0468750
        k(    4) = (   0.1250000  -0.1250000   0.3750000), wk =   0.0000000
        k(    5) = (   0.3750000  -0.3750000   0.6250000), wk =   0.0468750
        k(    6) = (   0.8750000  -0.8750000   1.1250000), wk =   0.0000000
        k(    7) = (   0.1250000  -0.1250000   0.3750000), wk =   0.0468750
        k(    8) = (   0.6250000  -0.6250000   0.8750000), wk =   0.0000000
        k(    9) = (  -0.1250000   0.6250000   0.1250000), wk =   0.0937500
        k(   10) = (   0.3750000   0.1250000   0.6250000), wk =   0.0000000
        k(   11) = (   0.6250000  -0.1250000   0.8750000), wk =   0.0937500
        k(   12) = (   1.1250000  -0.6250000   1.3750000), wk =   0.0000000
        k(   13) = (   0.3750000   0.1250000   0.6250000), wk =   0.0937500
        k(   14) = (   0.8750000  -0.3750000   1.1250000), wk =   0.0000000
        k(   15) = (  -0.1250000  -0.8750000   0.1250000), wk =   0.0937500
        k(   16) = (   0.3750000  -1.3750000   0.6250000), wk =   0.0000000
        k(   17) = (  -0.3750000   0.3750000   0.3750000), wk =   0.0468750
        k(   18) = (   0.1250000  -0.1250000   0.8750000), wk =   0.0000000
        k(   19) = (   0.3750000  -0.3750000   1.1250000), wk =   0.0468750
        k(   20) = (   0.8750000  -0.8750000   1.6250000), wk =   0.0000000
        k(   21) = (   0.1250000  -0.1250000   0.1250000), wk =   0.0156250
        k(   22) = (   0.6250000  -0.6250000   0.6250000), wk =   0.0000000
        k(   23) = (  -0.3750000  -0.3750000  -0.1250000), wk =   0.0937500
        k(   24) = (   0.1250000  -0.8750000   0.3750000), wk =   0.0000000
        k(   25) = (  -0.1250000  -0.3750000   0.3750000), wk =   0.0468750
        k(   26) = (   0.3750000  -0.8750000   0.8750000), wk =   0.0000000
        k(   27) = (   0.3750000   0.3750000   0.6250000), wk =   0.0937500
        k(   28) = (   0.8750000  -0.1250000   1.1250000), wk =   0.0000000
        k(   29) = (   0.6250000   0.3750000  -0.3750000), wk =   0.0468750
        k(   30) = (   1.1250000  -0.1250000   0.1250000), wk =   0.0000000
        k(   31) = (   0.1250000   0.1250000   0.3750000), wk =   0.0937500
        k(   32) = (   0.6250000  -0.3750000   0.8750000), wk =   0.0000000
        k(   33) = (   0.3750000   0.1250000  -0.1250000), wk =   0.0468750
        k(   34) = (   0.8750000  -0.3750000   0.3750000), wk =   0.0000000
        k(   35) = (  -0.1250000  -0.6250000  -0.1250000), wk =   0.0468750
        k(   36) = (   0.3750000  -1.1250000   0.3750000), wk =   0.0000000
        k(   37) = (   0.1250000  -0.6250000   0.1250000), wk =   0.0468750
        k(   38) = (   0.6250000  -1.1250000   0.6250000), wk =   0.0000000
        k(   39) = (   0.6250000   0.1250000   0.8750000), wk =   0.0937500
        k(   40) = (   1.1250000  -0.3750000   1.3750000), wk =   0.0000000
        k(   41) = (  -0.8750000   0.1250000   0.6250000), wk =   0.0937500
        k(   42) = (  -0.3750000  -0.3750000   1.1250000), wk =   0.0000000
        k(   43) = (   0.8750000   0.1250000  -0.6250000), wk =   0.0937500
        k(   44) = (   1.3750000  -0.3750000  -0.1250000), wk =   0.0000000
        k(   45) = (   0.3750000  -0.1250000   0.6250000), wk =   0.0937500
        k(   46) = (   0.8750000  -0.6250000   1.1250000), wk =   0.0000000
        k(   47) = (  -0.6250000  -0.1250000   0.3750000), wk =   0.0937500
        k(   48) = (  -0.1250000  -0.6250000   0.8750000), wk =   0.0000000
        k(   49) = (   0.6250000  -0.1250000  -0.3750000), wk =   0.0937500
        k(   50) = (   1.1250000  -0.6250000   0.1250000), wk =   0.0000000
        k(   51) = (  -0.1250000   0.8750000  -0.1250000), wk =   0.0468750
        k(   52) = (   0.3750000   0.3750000   0.3750000), wk =   0.0000000
        k(   53) = (   0.1250000   0.8750000   0.1250000), wk =   0.0468750
        k(   54) = (   0.6250000   0.3750000   0.6250000), wk =   0.0000000
        k(   55) = (   0.3750000  -0.3750000   0.3750000), wk =   0.0156250
        k(   56) = (   0.8750000  -0.8750000   0.8750000), wk =   0.0000000
        k(   57) = (   0.3750000   0.3750000   1.1250000), wk =   0.0937500
        k(   58) = (   0.8750000  -0.1250000   1.6250000), wk =   0.0000000
        k(   59) = (   1.1250000   0.3750000  -0.3750000), wk =   0.0468750
        k(   60) = (   1.6250000  -0.1250000   0.1250000), wk =   0.0000000

     Dense  grid:     2741 G-vectors     FFT dimensions: (  20,  20,  20)

     Estimated max dynamical RAM per process >       0.33MB

     Estimated total allocated dynamical RAM >       1.30MB

     Check: negative/imaginary core charge=   -0.000005    0.000000

     The potential is recalculated from file :
     ./_ph0/silicon.10.322.save/charge-density.dat

     Starting wfc are    8 atomic wfcs

     Band Structure Calculation
     Davidson diagonalization with overlap

     ethr =  1.25E-10,  avg # of iterations = 11.7

     total cpu time spent up to now is        2.0 secs

     End of band structure calculation

          k =-0.1250 0.1250 0.1250 (   338 PWs)   bands (ev):

    -5.6183   4.4249   5.7335   5.7335

          k = 0.3750-0.3750 0.6250 (   359 PWs)   bands (ev):

    -3.4514  -0.6527   3.7668   4.4782

          k =-0.3750 0.3750-0.1250 (   352 PWs)   bands (ev):

    -4.5914   1.4270   3.7469   5.2508

          k = 0.1250-0.1250 0.3750 (   349 PWs)   bands (ev):

    -5.0905   2.8052   4.7232   4.7891

          k = 0.3750-0.3750 0.6250 (   359 PWs)   bands (ev):

    -3.4514  -0.6527   3.7668   4.4782

          k = 0.8750-0.8750 1.1250 (   338 PWs)   bands (ev):

    -5.6183   4.4249   5.7335   5.7335

          k = 0.1250-0.1250 0.3750 (   349 PWs)   bands (ev):

    -5.0905   2.8052   4.7232   4.7891

          k = 0.6250-0.6250 0.8750 (   352 PWs)   bands (ev):

    -4.5914   1.4270   3.7469   5.2508

          k =-0.1250 0.6250 0.1250 (   349 PWs)   bands (ev):

    -4.0581   1.0918   3.3977   3.8475

          k = 0.3750 0.1250 0.6250 (   357 PWs)   bands (ev):

    -3.6427   0.2178   2.7566   4.1238

          k = 0.6250-0.1250 0.8750 (   359 PWs)   bands (ev):

    -2.4170  -0.8739   2.0442   3.1192

          k = 1.1250-0.6250 1.3750 (   352 PWs)   bands (ev):

    -4.5914   1.4270   3.7469   5.2508

          k = 0.3750 0.1250 0.6250 (   357 PWs)   bands (ev):

    -3.6427   0.2178   2.7566   4.1238

          k = 0.8750-0.3750 1.1250 (   349 PWs)   bands (ev):

    -4.0581   1.0918   3.3977   3.8475

          k =-0.1250-0.8750 0.1250 (   358 PWs)   bands (ev):

    -2.5847  -0.7764   2.6524   3.3797

          k = 0.3750-1.3750 0.6250 (   359 PWs)   bands (ev):

    -3.4514  -0.6527   3.7668   4.4782

          k =-0.3750 0.3750 0.3750 (   353 PWs)   bands (ev):

    -4.1587   0.1365   4.9436   4.9436

          k = 0.1250-0.1250 0.8750 (   358 PWs)   bands (ev):

    -2.5847  -0.7764   2.6524   3.3797

          k = 0.3750-0.3750 1.1250 (   361 PWs)   bands (ev):

    -2.9551  -0.5696   2.1024   4.1612

          k = 0.8750-0.8750 1.6250 (   349 PWs)   bands (ev):

    -4.0581   1.0918   3.3977   3.8475

          k = 0.1250-0.1250 0.1250 (   338 PWs)   bands (ev):

    -5.6183   4.4249   5.7335   5.7335

          k = 0.6250-0.6250 0.6250 (   353 PWs)   bands (ev):

    -4.1587   0.1365   4.9436   4.9436

          k =-0.3750-0.3750-0.1250 (   352 PWs)   bands (ev):

    -4.5914   1.4270   3.7469   5.2508

          k = 0.1250-0.8750 0.3750 (   359 PWs)   bands (ev):

    -2.4170  -0.8739   2.0442   3.1192

          k =-0.1250-0.3750 0.3750 (   352 PWs)   bands (ev):

    -4.5914   1.4270   3.7469   5.2508

          k = 0.3750-0.8750 0.8750 (   349 PWs)   bands (ev):

    -4.0581   1.0918   3.3977   3.8475

          k = 0.3750 0.3750 0.6250 (   359 PWs)   bands (ev):

    -3.4514  -0.6527   3.7668   4.4782

          k = 0.8750-0.1250 1.1250 (   358 PWs)   bands (ev):

    -2.5847  -0.7764   2.6524   3.3797

          k = 0.6250 0.3750-0.3750 (   359 PWs)   bands (ev):

    -3.4514  -0.6527   3.7668   4.4782

          k = 1.1250-0.1250 0.1250 (   358 PWs)   bands (ev):

    -2.5847  -0.7764   2.6524   3.3797

          k = 0.1250 0.1250 0.3750 (   349 PWs)   bands (ev):

    -5.0905   2.8052   4.7232   4.7891

          k = 0.6250-0.3750 0.8750 (   357 PWs)   bands (ev):

    -3.6427   0.2178   2.7566   4.1238

          k = 0.3750 0.1250-0.1250 (   349 PWs)   bands (ev):

    -5.0905   2.8052   4.7232   4.7891

          k = 0.8750-0.3750 0.3750 (   361 PWs)   bands (ev):

    -2.9551  -0.5696   2.1024   4.1612

          k =-0.1250-0.6250-0.1250 (   349 PWs)   bands (ev):

    -4.0581   1.0918   3.3977   3.8475

          k = 0.3750-1.1250 0.3750 (   361 PWs)   bands (ev):

    -2.9551  -0.5696   2.1024   4.1612

          k = 0.1250-0.6250 0.1250 (   349 PWs)   bands (ev):

    -4.0581   1.0918   3.3977   3.8475

          k = 0.6250-1.1250 0.6250 (   352 PWs)   bands (ev):

    -4.5914   1.4270   3.7469   5.2508

          k = 0.6250 0.1250 0.8750 (   359 PWs)   bands (ev):

    -2.4170  -0.8739   2.0442   3.1192

          k = 1.1250-0.3750 1.3750 (   357 PWs)   bands (ev):

    -3.6427   0.2178   2.7566   4.1238

          k =-0.8750 0.1250 0.6250 (   359 PWs)   bands (ev):

    -2.4170  -0.8739   2.0442   3.1192

          k =-0.3750-0.3750 1.1250 (   361 PWs)   bands (ev):

    -2.9551  -0.5696   2.1024   4.1612

          k = 0.8750 0.1250-0.6250 (   359 PWs)   bands (ev):

    -2.4170  -0.8739   2.0442   3.1192

          k = 1.3750-0.3750-0.1250 (   357 PWs)   bands (ev):

    -3.6427   0.2178   2.7566   4.1238

          k = 0.3750-0.1250 0.6250 (   357 PWs)   bands (ev):

    -3.6427   0.2178   2.7566   4.1238

          k = 0.8750-0.6250 1.1250 (   349 PWs)   bands (ev):

    -5.0905   2.8052   4.7232   4.7891

          k =-0.6250-0.1250 0.3750 (   357 PWs)   bands (ev):

    -3.6427   0.2178   2.7566   4.1238

          k =-0.1250-0.6250 0.8750 (   359 PWs)   bands (ev):

    -2.4170  -0.8739   2.0442   3.1192

          k = 0.6250-0.1250-0.3750 (   357 PWs)   bands (ev):

    -3.6427   0.2178   2.7566   4.1238

          k = 1.1250-0.6250 0.1250 (   359 PWs)   bands (ev):

    -2.4170  -0.8739   2.0442   3.1192

          k =-0.1250 0.8750-0.1250 (   358 PWs)   bands (ev):

    -2.5847  -0.7764   2.6524   3.3797

          k = 0.3750 0.3750 0.3750 (   353 PWs)   bands (ev):

    -4.1587   0.1365   4.9436   4.9436

          k = 0.1250 0.8750 0.1250 (   358 PWs)   bands (ev):

    -2.5847  -0.7764   2.6524   3.3797

          k = 0.6250 0.3750 0.6250 (   359 PWs)   bands (ev):

    -3.4514  -0.6527   3.7668   4.4782

          k = 0.3750-0.3750 0.3750 (   353 PWs)   bands (ev):

    -4.1587   0.1365   4.9436   4.9436

          k = 0.8750-0.8750 0.8750 (   338 PWs)   bands (ev):

    -5.6183   4.4249   5.7335   5.7335

          k = 0.3750 0.3750 1.1250 (   361 PWs)   bands (ev):

    -2.9551  -0.5696   2.1024   4.1612

          k = 0.8750-0.1250 1.6250 (   359 PWs)   bands (ev):

    -2.4170  -0.8739   2.0442   3.1192

          k = 1.1250 0.3750-0.3750 (   361 PWs)   bands (ev):

    -2.9551  -0.5696   2.1024   4.1612

          k = 1.6250-0.1250 0.1250 (   349 PWs)   bands (ev):

    -5.0905   2.8052   4.7232   4.7891

     highest occupied level (ev):     5.7335

     Writing output data file silicon.10.322.save

                                                                                

     bravais-lattice index     =            2
     lattice parameter (alat)  =      10.3220  a.u.
     unit-cell volume          =     274.9360 (a.u.)^3
     number of atoms/cell      =            2
     number of atomic types    =            1
     kinetic-energy cut-off    =      18.0000  Ry
     charge density cut-off    =      72.0000  Ry
     convergence threshold     =      1.0E-12
     beta                      =       0.7000
     number of iterations used =            4
     Exchange-correlation      = SLA  PW   PBE  PBE ( 1  4  3  4 0 0)


     celldm(1)=   10.32200  celldm(2)=    0.00000  celldm(3)=    0.00000
     celldm(4)=    0.00000  celldm(5)=    0.00000  celldm(6)=    0.00000

     crystal axes: (cart. coord. in units of alat)
               a(1) = ( -0.5000  0.0000  0.5000 )  
               a(2) = (  0.0000  0.5000  0.5000 )  
               a(3) = ( -0.5000  0.5000  0.0000 )  

     reciprocal axes: (cart. coord. in units 2 pi/alat)
               b(1) = ( -1.0000 -1.0000  1.0000 )  
               b(2) = (  1.0000  1.0000  1.0000 )  
               b(3) = ( -1.0000  1.0000 -1.0000 )  


     Atoms inside the unit cell: 

     Cartesian axes

     site n.  atom      mass           positions (alat units)
        1     Si  28.0860   tau(    1) = (    0.00000    0.00000    0.00000  )
        2     Si  28.0860   tau(    2) = (    0.25000    0.25000    0.25000  )

     Computing dynamical matrix for 
                    q = (   0.5000000  -0.5000000   0.5000000 )

     13 Sym.Ops. (with q -> -q+G )


     G cutoff =  194.3124  (    685 G-vectors)     FFT grid: ( 20, 20, 20)
     number of k points=    60

     PseudoPot. # 1 for Si read from file:
     /home/max/quantum_espresso/qe-6.1/pseudo/si_pbe_v1.uspp.F.UPF.txt
     MD5 check sum: a056efeee980c13900f22a371efd63c1
     Pseudo is Ultrasoft + core correction, Zval =  4.0
     Generated by new atomic code, or converted to UPF format
     Using radial grid of  899 points,  6 beta functions with: 
                l(1) =   0
                l(2) =   0
                l(3) =   1
                l(4) =   1
                l(5) =   2
                l(6) =   2
     Q(r) pseudized with  8 coefficients,  rinner =    0.900   0.900   0.900
                                                       0.900   0.900


     Atomic displacements:
     There are   4 irreducible representations

     Representation     1      1 modes -  To be done

     Representation     2      1 modes -  To be done

     Representation     3      2 modes -  To be done

     Representation     4      2 modes -  To be done



     Alpha used in Ewald sum =   0.7000
     PHONON       :    18.24s CPU        21.44s WALL



     Representation #  1 mode #   1

     Self-consistent Calculation

      iter #   1 total cpu time :    21.6 secs   av.it.:   4.8
      thresh= 1.000E-02 alpha_mix =  0.700 |ddv_scf|^2 =  2.488E-05

      iter #   2 total cpu time :    21.7 secs   av.it.:   8.3
      thresh= 4.988E-04 alpha_mix =  0.700 |ddv_scf|^2 =  2.211E-05

      iter #   3 total cpu time :    21.9 secs   av.it.:   7.5
      thresh= 4.702E-04 alpha_mix =  0.700 |ddv_scf|^2 =  4.171E-08

      iter #   4 total cpu time :    22.1 secs   av.it.:   7.5
      thresh= 2.042E-05 alpha_mix =  0.700 |ddv_scf|^2 =  1.406E-10

      iter #   5 total cpu time :    22.2 secs   av.it.:   7.9
      thresh= 1.186E-06 alpha_mix =  0.700 |ddv_scf|^2 =  3.616E-12

      iter #   6 total cpu time :    22.4 secs   av.it.:   7.9
      thresh= 1.901E-07 alpha_mix =  0.700 |ddv_scf|^2 =  5.593E-14

     End of self-consistent calculation

     Convergence has been achieved 


     Representation #  2 mode #   2

     Self-consistent Calculation

      iter #   1 total cpu time :    22.5 secs   av.it.:   5.6
      thresh= 1.000E-02 alpha_mix =  0.700 |ddv_scf|^2 =  3.459E-04

      iter #   2 total cpu time :    22.7 secs   av.it.:   8.3
      thresh= 1.860E-03 alpha_mix =  0.700 |ddv_scf|^2 =  1.066E-03

      iter #   3 total cpu time :    23.2 secs   av.it.:   7.1
      thresh= 3.264E-03 alpha_mix =  0.700 |ddv_scf|^2 =  1.126E-07

      iter #   4 total cpu time :    23.3 secs   av.it.:   8.2
      thresh= 3.355E-05 alpha_mix =  0.700 |ddv_scf|^2 =  7.213E-09

      iter #   5 total cpu time :    23.5 secs   av.it.:   8.5
      thresh= 8.493E-06 alpha_mix =  0.700 |ddv_scf|^2 =  1.292E-10

      iter #   6 total cpu time :    23.7 secs   av.it.:   8.3
      thresh= 1.137E-06 alpha_mix =  0.700 |ddv_scf|^2 =  2.067E-12

      iter #   7 total cpu time :    23.8 secs   av.it.:   7.8
      thresh= 1.438E-07 alpha_mix =  0.700 |ddv_scf|^2 =  3.245E-15

     End of self-consistent calculation

     Convergence has been achieved 


     Representation #  3 modes #   3  4

     Self-consistent Calculation

      iter #   1 total cpu time :    24.1 secs   av.it.:   4.7
      thresh= 1.000E-02 alpha_mix =  0.700 |ddv_scf|^2 =  3.022E-07

      iter #   2 total cpu time :    24.5 secs   av.it.:   9.0
      thresh= 5.497E-05 alpha_mix =  0.700 |ddv_scf|^2 =  2.489E-08

      iter #   3 total cpu time :    25.2 secs   av.it.:   8.4
      thresh= 1.578E-05 alpha_mix =  0.700 |ddv_scf|^2 =  4.919E-10

      iter #   4 total cpu time :    25.5 secs   av.it.:   8.9
      thresh= 2.218E-06 alpha_mix =  0.700 |ddv_scf|^2 =  6.191E-12

      iter #   5 total cpu time :    25.8 secs   av.it.:   8.7
      thresh= 2.488E-07 alpha_mix =  0.700 |ddv_scf|^2 =  3.211E-14

     End of self-consistent calculation

     Convergence has been achieved 


     Representation #  4 modes #   5  6

     Self-consistent Calculation

      iter #   1 total cpu time :    26.1 secs   av.it.:   5.0
      thresh= 1.000E-02 alpha_mix =  0.700 |ddv_scf|^2 =  9.779E-07

      iter #   2 total cpu time :    26.5 secs   av.it.:   9.5
      thresh= 9.889E-05 alpha_mix =  0.700 |ddv_scf|^2 =  7.650E-08

      iter #   3 total cpu time :    27.2 secs   av.it.:   9.3
      thresh= 2.766E-05 alpha_mix =  0.700 |ddv_scf|^2 =  4.878E-09

      iter #   4 total cpu time :    27.5 secs   av.it.:   8.4
      thresh= 6.984E-06 alpha_mix =  0.700 |ddv_scf|^2 =  6.564E-12

      iter #   5 total cpu time :    27.9 secs   av.it.:   8.8
      thresh= 2.562E-07 alpha_mix =  0.700 |ddv_scf|^2 =  2.281E-14

     End of self-consistent calculation

     Convergence has been achieved 

     Number of q in the star =    4
     List of q in the star:
          1   0.500000000  -0.500000000   0.500000000
          2   0.500000000   0.500000000   0.500000000
          3  -0.500000000   0.500000000   0.500000000
          4   0.500000000   0.500000000  -0.500000000

     Diagonalizing the dynamical matrix

     q = (    0.500000000  -0.500000000   0.500000000 ) 

 **************************************************************************
     freq (    1) =       4.529506 [THz] =     151.088055 [cm-1]
     freq (    2) =       4.529506 [THz] =     151.088055 [cm-1]
     freq (    3) =      11.553505 [THz] =     385.383456 [cm-1]
     freq (    4) =      12.188788 [THz] =     406.574211 [cm-1]
     freq (    5) =      14.468049 [THz] =     482.602169 [cm-1]
     freq (    6) =      14.468049 [THz] =     482.602169 [cm-1]
 **************************************************************************

     Calculation of q =    0.0000000   0.5000000   0.0000000

   Info: using nr1, nr2, nr3 values from input

   Info: using nr1, nr2, nr3 values from input

     Parallelization info
     --------------------
     sticks:   dense  smooth     PW     G-vecs:    dense   smooth      PW
     Min          63      63     27                  684      684     175
     Max          64      64     28                  688      688     176
     Sum         253     253    109                 2741     2741     701



     bravais-lattice index     =            2
     lattice parameter (alat)  =      10.3220  a.u.
     unit-cell volume          =     274.9360 (a.u.)^3
     number of atoms/cell      =            2
     number of atomic types    =            1
     number of electrons       =         8.00
     number of Kohn-Sham states=            4
     kinetic-energy cutoff     =      18.0000  Ry
     charge density cutoff     =      72.0000  Ry
     Exchange-correlation      = SLA  PW   PBE  PBE ( 1  4  3  4 0 0)

     celldm(1)=  10.322000  celldm(2)=   0.000000  celldm(3)=   0.000000
     celldm(4)=   0.000000  celldm(5)=   0.000000  celldm(6)=   0.000000

     crystal axes: (cart. coord. in units of alat)
               a(1) = (  -0.500000   0.000000   0.500000 )  
               a(2) = (   0.000000   0.500000   0.500000 )  
               a(3) = (  -0.500000   0.500000   0.000000 )  

     reciprocal axes: (cart. coord. in units 2 pi/alat)
               b(1) = ( -1.000000 -1.000000  1.000000 )  
               b(2) = (  1.000000  1.000000  1.000000 )  
               b(3) = ( -1.000000  1.000000 -1.000000 )  


     PseudoPot. # 1 for Si read from file:
     /home/max/quantum_espresso/qe-6.1/pseudo/si_pbe_v1.uspp.F.UPF.txt
     MD5 check sum: a056efeee980c13900f22a371efd63c1
     Pseudo is Ultrasoft + core correction, Zval =  4.0
     Generated by new atomic code, or converted to UPF format
     Using radial grid of  899 points,  6 beta functions with: 
                l(1) =   0
                l(2) =   0
                l(3) =   1
                l(4) =   1
                l(5) =   2
                l(6) =   2
     Q(r) pseudized with  8 coefficients,  rinner =    0.900   0.900   0.900
                                                       0.900   0.900

     atomic species   valence    mass     pseudopotential
        Si             4.00    28.08600     Si( 1.00)

     48 Sym. Ops., with inversion, found



   Cartesian axes

     site n.     atom                  positions (alat units)
         1           Si  tau(   1) = (   0.0000000   0.0000000   0.0000000  )
         2           Si  tau(   2) = (   0.2500000   0.2500000   0.2500000  )

     number of k points=    80
                       cart. coord. in units 2pi/alat
        k(    1) = (  -0.1250000   0.1250000   0.1250000), wk =   0.0312500
        k(    2) = (  -0.1250000   0.6250000   0.1250000), wk =   0.0000000
        k(    3) = (  -0.3750000   0.3750000  -0.1250000), wk =   0.0625000
        k(    4) = (  -0.3750000   0.8750000  -0.1250000), wk =   0.0000000
        k(    5) = (   0.3750000  -0.3750000   0.6250000), wk =   0.0625000
        k(    6) = (   0.3750000   0.1250000   0.6250000), wk =   0.0000000
        k(    7) = (   0.1250000  -0.1250000   0.3750000), wk =   0.0625000
        k(    8) = (   0.1250000   0.3750000   0.3750000), wk =   0.0000000
        k(    9) = (  -0.1250000   0.6250000   0.1250000), wk =   0.0312500
        k(   10) = (  -0.1250000   1.1250000   0.1250000), wk =   0.0000000
        k(   11) = (   0.6250000  -0.1250000   0.8750000), wk =   0.0625000
        k(   12) = (   0.6250000   0.3750000   0.8750000), wk =   0.0000000
        k(   13) = (   0.3750000   0.1250000   0.6250000), wk =   0.0625000
        k(   14) = (   0.3750000   0.6250000   0.6250000), wk =   0.0000000
        k(   15) = (  -0.1250000  -0.8750000   0.1250000), wk =   0.0312500
        k(   16) = (  -0.1250000  -0.3750000   0.1250000), wk =   0.0000000
        k(   17) = (  -0.3750000   0.3750000   0.3750000), wk =   0.0312500
        k(   18) = (  -0.3750000   0.8750000   0.3750000), wk =   0.0000000
        k(   19) = (   0.3750000  -0.3750000   1.1250000), wk =   0.0625000
        k(   20) = (   0.3750000   0.1250000   1.1250000), wk =   0.0000000
        k(   21) = (  -0.1250000  -0.1250000   0.1250000), wk =   0.0312500
        k(   22) = (  -0.1250000   0.3750000   0.1250000), wk =   0.0000000
        k(   23) = (   0.1250000  -0.3750000   0.3750000), wk =   0.0625000
        k(   24) = (   0.1250000   0.1250000   0.3750000), wk =   0.0000000
        k(   25) = (   0.3750000  -0.1250000   0.3750000), wk =   0.0312500
        k(   26) = (   0.3750000   0.3750000   0.3750000), wk =   0.0000000
        k(   27) = (   0.3750000   0.1250000   0.3750000), wk =   0.0312500
        k(   28) = (   0.3750000   0.6250000   0.3750000), wk =   0.0000000
        k(   29) = (  -0.6250000   0.3750000  -0.3750000), wk =   0.0625000
        k(   30) = (  -0.6250000   0.8750000  -0.3750000), wk =   0.0000000
        k(   31) = (  -0.3750000   0.6250000  -0.3750000), wk =   0.0312500
        k(   32) = (  -0.3750000   1.1250000  -0.3750000), wk =   0.0000000
        k(   33) = (  -0.3750000  -0.6250000  -0.3750000), wk =   0.0312500
        k(   34) = (  -0.3750000  -0.1250000  -0.3750000), wk =   0.0000000
        k(   35) = (  -0.3750000   0.1250000  -0.1250000), wk =   0.0625000
        k(   36) = (  -0.3750000   0.6250000  -0.1250000), wk =   0.0000000
        k(   37) = (  -0.1250000   0.3750000  -0.1250000), wk =   0.0312500
        k(   38) = (  -0.1250000   0.8750000  -0.1250000), wk =   0.0000000
        k(   39) = (  -0.1250000  -0.3750000  -0.1250000), wk =   0.0312500
        k(   40) = (  -0.1250000   0.1250000  -0.1250000), wk =   0.0000000
        k(   41) = (  -0.1250000  -0.6250000   0.1250000), wk =   0.0312500
        k(   42) = (  -0.1250000  -0.1250000   0.1250000), wk =   0.0000000
        k(   43) = (   0.6250000  -0.1250000  -0.1250000), wk =   0.0625000
        k(   44) = (   0.6250000   0.3750000  -0.1250000), wk =   0.0000000
        k(   45) = (   0.6250000   0.1250000   0.1250000), wk =   0.0625000
        k(   46) = (   0.6250000   0.6250000   0.1250000), wk =   0.0000000
        k(   47) = (  -0.8750000   0.1250000  -0.6250000), wk =   0.0625000
        k(   48) = (  -0.8750000   0.6250000  -0.6250000), wk =   0.0000000
        k(   49) = (  -0.1250000   0.6250000  -0.8750000), wk =   0.0625000
        k(   50) = (  -0.1250000   1.1250000  -0.8750000), wk =   0.0000000
        k(   51) = (  -0.1250000   0.8750000  -0.6250000), wk =   0.0625000
        k(   52) = (  -0.1250000   1.3750000  -0.6250000), wk =   0.0000000
        k(   53) = (  -0.1250000  -0.8750000  -0.6250000), wk =   0.0625000
        k(   54) = (  -0.1250000  -0.3750000  -0.6250000), wk =   0.0000000
        k(   55) = (   0.8750000  -0.6250000   0.1250000), wk =   0.0625000
        k(   56) = (   0.8750000  -0.1250000   0.1250000), wk =   0.0000000
        k(   57) = (  -0.6250000  -0.1250000  -0.3750000), wk =   0.0625000
        k(   58) = (  -0.6250000   0.3750000  -0.3750000), wk =   0.0000000
        k(   59) = (   0.1250000   0.3750000  -0.6250000), wk =   0.0625000
        k(   60) = (   0.1250000   0.8750000  -0.6250000), wk =   0.0000000
        k(   61) = (   0.1250000   0.6250000  -0.3750000), wk =   0.0625000
        k(   62) = (   0.1250000   1.1250000  -0.3750000), wk =   0.0000000
        k(   63) = (   0.1250000  -0.6250000  -0.3750000), wk =   0.0625000
        k(   64) = (   0.1250000  -0.1250000  -0.3750000), wk =   0.0000000
        k(   65) = (   0.6250000  -0.3750000  -0.1250000), wk =   0.0625000
        k(   66) = (   0.6250000   0.1250000  -0.1250000), wk =   0.0000000
        k(   67) = (  -0.1250000   0.8750000   0.1250000), wk =   0.0312500
        k(   68) = (  -0.1250000   1.3750000   0.1250000), wk =   0.0000000
        k(   69) = (  -0.8750000  -0.1250000  -0.1250000), wk =   0.0625000
        k(   70) = (  -0.8750000   0.3750000  -0.1250000), wk =   0.0000000
        k(   71) = (  -0.8750000   0.1250000   0.1250000), wk =   0.0625000
        k(   72) = (  -0.8750000   0.6250000   0.1250000), wk =   0.0000000
        k(   73) = (  -0.3750000  -0.3750000   0.3750000), wk =   0.0312500
        k(   74) = (  -0.3750000   0.1250000   0.3750000), wk =   0.0000000
        k(   75) = (  -1.1250000   0.3750000  -0.3750000), wk =   0.0625000
        k(   76) = (  -1.1250000   0.8750000  -0.3750000), wk =   0.0000000
        k(   77) = (  -0.3750000   1.1250000  -0.3750000), wk =   0.0312500
        k(   78) = (  -0.3750000   1.6250000  -0.3750000), wk =   0.0000000
        k(   79) = (  -0.3750000  -1.1250000  -0.3750000), wk =   0.0312500
        k(   80) = (  -0.3750000  -0.6250000  -0.3750000), wk =   0.0000000

     Dense  grid:     2741 G-vectors     FFT dimensions: (  20,  20,  20)

     Estimated max dynamical RAM per process >       0.33MB

     Estimated total allocated dynamical RAM >       1.30MB

     Check: negative/imaginary core charge=   -0.000005    0.000000

     The potential is recalculated from file :
     ./_ph0/silicon.10.322.save/charge-density.dat

     Starting wfc are    8 atomic wfcs

     Band Structure Calculation
     Davidson diagonalization with overlap

     ethr =  1.25E-10,  avg # of iterations = 11.7

     total cpu time spent up to now is        2.7 secs

     End of band structure calculation

          k =-0.1250 0.1250 0.1250 (   338 PWs)   bands (ev):

    -5.6183   4.4249   5.7335   5.7335

          k =-0.1250 0.6250 0.1250 (   349 PWs)   bands (ev):

    -4.0581   1.0918   3.3977   3.8475

          k =-0.3750 0.3750-0.1250 (   352 PWs)   bands (ev):

    -4.5914   1.4270   3.7469   5.2508

          k =-0.3750 0.8750-0.1250 (   359 PWs)   bands (ev):

    -2.4170  -0.8739   2.0442   3.1192

          k = 0.3750-0.3750 0.6250 (   359 PWs)   bands (ev):

    -3.4514  -0.6527   3.7668   4.4782

          k = 0.3750 0.1250 0.6250 (   357 PWs)   bands (ev):

    -3.6427   0.2178   2.7566   4.1238

          k = 0.1250-0.1250 0.3750 (   349 PWs)   bands (ev):

    -5.0905   2.8052   4.7232   4.7891

          k = 0.1250 0.3750 0.3750 (   352 PWs)   bands (ev):

    -4.5914   1.4270   3.7469   5.2508

          k =-0.1250 0.6250 0.1250 (   349 PWs)   bands (ev):

    -4.0581   1.0918   3.3977   3.8475

          k =-0.1250 1.1250 0.1250 (   358 PWs)   bands (ev):

    -2.5847  -0.7764   2.6524   3.3797

          k = 0.6250-0.1250 0.8750 (   359 PWs)   bands (ev):

    -2.4170  -0.8739   2.0442   3.1192

          k = 0.6250 0.3750 0.8750 (   357 PWs)   bands (ev):

    -3.6427   0.2178   2.7566   4.1238

          k = 0.3750 0.1250 0.6250 (   357 PWs)   bands (ev):

    -3.6427   0.2178   2.7566   4.1238

          k = 0.3750 0.6250 0.6250 (   359 PWs)   bands (ev):

    -3.4514  -0.6527   3.7668   4.4782

          k =-0.1250-0.8750 0.1250 (   358 PWs)   bands (ev):

    -2.5847  -0.7764   2.6524   3.3797

          k =-0.1250-0.3750 0.1250 (   349 PWs)   bands (ev):

    -5.0905   2.8052   4.7232   4.7891

          k =-0.3750 0.3750 0.3750 (   353 PWs)   bands (ev):

    -4.1587   0.1365   4.9436   4.9436

          k =-0.3750 0.8750 0.3750 (   361 PWs)   bands (ev):

    -2.9551  -0.5696   2.1024   4.1612

          k = 0.3750-0.3750 1.1250 (   361 PWs)   bands (ev):

    -2.9551  -0.5696   2.1024   4.1612

          k = 0.3750 0.1250 1.1250 (   359 PWs)   bands (ev):

    -2.4170  -0.8739   2.0442   3.1192

          k =-0.1250-0.1250 0.1250 (   338 PWs)   bands (ev):

    -5.6183   4.4249   5.7335   5.7335

          k =-0.1250 0.3750 0.1250 (   349 PWs)   bands (ev):

    -5.0905   2.8052   4.7232   4.7891

          k = 0.1250-0.3750 0.3750 (   352 PWs)   bands (ev):

    -4.5914   1.4270   3.7469   5.2508

          k = 0.1250 0.1250 0.3750 (   349 PWs)   bands (ev):

    -5.0905   2.8052   4.7232   4.7891

          k = 0.3750-0.1250 0.3750 (   352 PWs)   bands (ev):

    -4.5914   1.4270   3.7469   5.2508

          k = 0.3750 0.3750 0.3750 (   353 PWs)   bands (ev):

    -4.1587   0.1365   4.9436   4.9436

          k = 0.3750 0.1250 0.3750 (   352 PWs)   bands (ev):

    -4.5914   1.4270   3.7469   5.2508

          k = 0.3750 0.6250 0.3750 (   359 PWs)   bands (ev):

    -3.4514  -0.6527   3.7668   4.4782

          k =-0.6250 0.3750-0.3750 (   359 PWs)   bands (ev):

    -3.4514  -0.6527   3.7668   4.4782

          k =-0.6250 0.8750-0.3750 (   357 PWs)   bands (ev):

    -3.6427   0.2178   2.7566   4.1238

          k =-0.3750 0.6250-0.3750 (   359 PWs)   bands (ev):

    -3.4514  -0.6527   3.7668   4.4782

          k =-0.3750 1.1250-0.3750 (   361 PWs)   bands (ev):

    -2.9551  -0.5696   2.1024   4.1612

          k =-0.3750-0.6250-0.3750 (   359 PWs)   bands (ev):

    -3.4514  -0.6527   3.7668   4.4782

          k =-0.3750-0.1250-0.3750 (   352 PWs)   bands (ev):

    -4.5914   1.4270   3.7469   5.2508

          k =-0.3750 0.1250-0.1250 (   349 PWs)   bands (ev):

    -5.0905   2.8052   4.7232   4.7891

          k =-0.3750 0.6250-0.1250 (   357 PWs)   bands (ev):

    -3.6427   0.2178   2.7566   4.1238

          k =-0.1250 0.3750-0.1250 (   349 PWs)   bands (ev):

    -5.0905   2.8052   4.7232   4.7891

          k =-0.1250 0.8750-0.1250 (   358 PWs)   bands (ev):

    -2.5847  -0.7764   2.6524   3.3797

          k =-0.1250-0.3750-0.1250 (   349 PWs)   bands (ev):

    -5.0905   2.8052   4.7232   4.7891

          k =-0.1250 0.1250-0.1250 (   338 PWs)   bands (ev):

    -5.6183   4.4249   5.7335   5.7335

          k =-0.1250-0.6250 0.1250 (   349 PWs)   bands (ev):

    -4.0581   1.0918   3.3977   3.8475

          k =-0.1250-0.1250 0.1250 (   338 PWs)   bands (ev):

    -5.6183   4.4249   5.7335   5.7335

          k = 0.6250-0.1250-0.1250 (   349 PWs)   bands (ev):

    -4.0581   1.0918   3.3977   3.8475

          k = 0.6250 0.3750-0.1250 (   357 PWs)   bands (ev):

    -3.6427   0.2178   2.7566   4.1238

          k = 0.6250 0.1250 0.1250 (   349 PWs)   bands (ev):

    -4.0581   1.0918   3.3977   3.8475

          k = 0.6250 0.6250 0.1250 (   361 PWs)   bands (ev):

    -2.9551  -0.5696   2.1024   4.1612

          k =-0.8750 0.1250-0.6250 (   359 PWs)   bands (ev):

    -2.4170  -0.8739   2.0442   3.1192

          k =-0.8750 0.6250-0.6250 (   352 PWs)   bands (ev):

    -4.5914   1.4270   3.7469   5.2508

          k =-0.1250 0.6250-0.8750 (   359 PWs)   bands (ev):

    -2.4170  -0.8739   2.0442   3.1192

          k =-0.1250 1.1250-0.8750 (   358 PWs)   bands (ev):

    -2.5847  -0.7764   2.6524   3.3797

          k =-0.1250 0.8750-0.6250 (   359 PWs)   bands (ev):

    -2.4170  -0.8739   2.0442   3.1192

          k =-0.1250 1.3750-0.6250 (   361 PWs)   bands (ev):

    -2.9551  -0.5696   2.1024   4.1612

          k =-0.1250-0.8750-0.6250 (   359 PWs)   bands (ev):

    -2.4170  -0.8739   2.0442   3.1192

          k =-0.1250-0.3750-0.6250 (   357 PWs)   bands (ev):

    -3.6427   0.2178   2.7566   4.1238

          k = 0.8750-0.6250 0.1250 (   359 PWs)   bands (ev):

    -2.4170  -0.8739   2.0442   3.1192

          k = 0.8750-0.1250 0.1250 (   358 PWs)   bands (ev):

    -2.5847  -0.7764   2.6524   3.3797

          k =-0.6250-0.1250-0.3750 (   357 PWs)   bands (ev):

    -3.6427   0.2178   2.7566   4.1238

          k =-0.6250 0.3750-0.3750 (   359 PWs)   bands (ev):

    -3.4514  -0.6527   3.7668   4.4782

          k = 0.1250 0.3750-0.6250 (   357 PWs)   bands (ev):

    -3.6427   0.2178   2.7566   4.1238

          k = 0.1250 0.8750-0.6250 (   359 PWs)   bands (ev):

    -2.4170  -0.8739   2.0442   3.1192

          k = 0.1250 0.6250-0.3750 (   357 PWs)   bands (ev):

    -3.6427   0.2178   2.7566   4.1238

          k = 0.1250 1.1250-0.3750 (   359 PWs)   bands (ev):

    -2.4170  -0.8739   2.0442   3.1192

          k = 0.1250-0.6250-0.3750 (   357 PWs)   bands (ev):

    -3.6427   0.2178   2.7566   4.1238

          k = 0.1250-0.1250-0.3750 (   349 PWs)   bands (ev):

    -5.0905   2.8052   4.7232   4.7891

          k = 0.6250-0.3750-0.1250 (   357 PWs)   bands (ev):

    -3.6427   0.2178   2.7566   4.1238

          k = 0.6250 0.1250-0.1250 (   349 PWs)   bands (ev):

    -4.0581   1.0918   3.3977   3.8475

          k =-0.1250 0.8750 0.1250 (   358 PWs)   bands (ev):

    -2.5847  -0.7764   2.6524   3.3797

          k =-0.1250 1.3750 0.1250 (   349 PWs)   bands (ev):

    -4.0581   1.0918   3.3977   3.8475

          k =-0.8750-0.1250-0.1250 (   358 PWs)   bands (ev):

    -2.5847  -0.7764   2.6524   3.3797

          k =-0.8750 0.3750-0.1250 (   359 PWs)   bands (ev):

    -2.4170  -0.8739   2.0442   3.1192

          k =-0.8750 0.1250 0.1250 (   358 PWs)   bands (ev):

    -2.5847  -0.7764   2.6524   3.3797

          k =-0.8750 0.6250 0.1250 (   359 PWs)   bands (ev):

    -2.4170  -0.8739   2.0442   3.1192

          k =-0.3750-0.3750 0.3750 (   353 PWs)   bands (ev):

    -4.1587   0.1365   4.9436   4.9436

          k =-0.3750 0.1250 0.3750 (   352 PWs)   bands (ev):

    -4.5914   1.4270   3.7469   5.2508

          k =-1.1250 0.3750-0.3750 (   361 PWs)   bands (ev):

    -2.9551  -0.5696   2.1024   4.1612

          k =-1.1250 0.8750-0.3750 (   349 PWs)   bands (ev):

    -4.0581   1.0918   3.3977   3.8475

          k =-0.3750 1.1250-0.3750 (   361 PWs)   bands (ev):

    -2.9551  -0.5696   2.1024   4.1612

          k =-0.3750 1.6250-0.3750 (   353 PWs)   bands (ev):

    -4.1587   0.1365   4.9436   4.9436

          k =-0.3750-1.1250-0.3750 (   361 PWs)   bands (ev):

    -2.9551  -0.5696   2.1024   4.1612

          k =-0.3750-0.6250-0.3750 (   359 PWs)   bands (ev):

    -3.4514  -0.6527   3.7668   4.4782

     highest occupied level (ev):     5.7335

     Writing output data file silicon.10.322.save

                                                                                

     bravais-lattice index     =            2
     lattice parameter (alat)  =      10.3220  a.u.
     unit-cell volume          =     274.9360 (a.u.)^3
     number of atoms/cell      =            2
     number of atomic types    =            1
     kinetic-energy cut-off    =      18.0000  Ry
     charge density cut-off    =      72.0000  Ry
     convergence threshold     =      1.0E-12
     beta                      =       0.7000
     number of iterations used =            4
     Exchange-correlation      = SLA  PW   PBE  PBE ( 1  4  3  4 0 0)


     celldm(1)=   10.32200  celldm(2)=    0.00000  celldm(3)=    0.00000
     celldm(4)=    0.00000  celldm(5)=    0.00000  celldm(6)=    0.00000

     crystal axes: (cart. coord. in units of alat)
               a(1) = ( -0.5000  0.0000  0.5000 )  
               a(2) = (  0.0000  0.5000  0.5000 )  
               a(3) = ( -0.5000  0.5000  0.0000 )  

     reciprocal axes: (cart. coord. in units 2 pi/alat)
               b(1) = ( -1.0000 -1.0000  1.0000 )  
               b(2) = (  1.0000  1.0000  1.0000 )  
               b(3) = ( -1.0000  1.0000 -1.0000 )  


     Atoms inside the unit cell: 

     Cartesian axes

     site n.  atom      mass           positions (alat units)
        1     Si  28.0860   tau(    1) = (    0.00000    0.00000    0.00000  )
        2     Si  28.0860   tau(    2) = (    0.25000    0.25000    0.25000  )

     Computing dynamical matrix for 
                    q = (   0.0000000   0.5000000   0.0000000 )

      8 Sym.Ops. (no q -> -q+G )


     G cutoff =  194.3124  (    685 G-vectors)     FFT grid: ( 20, 20, 20)
     number of k points=    80

     PseudoPot. # 1 for Si read from file:
     /home/max/quantum_espresso/qe-6.1/pseudo/si_pbe_v1.uspp.F.UPF.txt
     MD5 check sum: a056efeee980c13900f22a371efd63c1
     Pseudo is Ultrasoft + core correction, Zval =  4.0
     Generated by new atomic code, or converted to UPF format
     Using radial grid of  899 points,  6 beta functions with: 
                l(1) =   0
                l(2) =   0
                l(3) =   1
                l(4) =   1
                l(5) =   2
                l(6) =   2
     Q(r) pseudized with  8 coefficients,  rinner =    0.900   0.900   0.900
                                                       0.900   0.900

     Mode symmetry, C_4v (4mm)  point group:


     Atomic displacements:
     There are   4 irreducible representations

     Representation     1      1 modes -A_1  G_1 D_1  To be done

     Representation     2      1 modes -B_2  G_4 D_2'  To be done

     Representation     3      2 modes -E    G_5 D_5  To be done

     Representation     4      2 modes -E    G_5 D_5  To be done



     Alpha used in Ewald sum =   0.7000
     PHONON       :    25.20s CPU        29.23s WALL



     Representation #  1 mode #   1

     Self-consistent Calculation

      iter #   1 total cpu time :    29.4 secs   av.it.:   5.8
      thresh= 1.000E-02 alpha_mix =  0.700 |ddv_scf|^2 =  2.980E-03

      iter #   2 total cpu time :    29.6 secs   av.it.:   7.6
      thresh= 5.459E-03 alpha_mix =  0.700 |ddv_scf|^2 =  3.914E-02

      iter #   3 total cpu time :    29.8 secs   av.it.:   6.7
      thresh= 1.000E-02 alpha_mix =  0.700 |ddv_scf|^2 =  1.376E-07

      iter #   4 total cpu time :    30.0 secs   av.it.:   8.2
      thresh= 3.710E-05 alpha_mix =  0.700 |ddv_scf|^2 =  1.238E-08

      iter #   5 total cpu time :    30.2 secs   av.it.:   7.8
      thresh= 1.113E-05 alpha_mix =  0.700 |ddv_scf|^2 =  7.426E-10

      iter #   6 total cpu time :    30.4 secs   av.it.:   7.8
      thresh= 2.725E-06 alpha_mix =  0.700 |ddv_scf|^2 =  2.686E-12

      iter #   7 total cpu time :    30.6 secs   av.it.:   8.0
      thresh= 1.639E-07 alpha_mix =  0.700 |ddv_scf|^2 =  5.345E-13

     End of self-consistent calculation

     Convergence has been achieved 


     Representation #  2 mode #   2

     Self-consistent Calculation

      iter #   1 total cpu time :    31.1 secs   av.it.:   4.9
      thresh= 1.000E-02 alpha_mix =  0.700 |ddv_scf|^2 =  5.506E-06

      iter #   2 total cpu time :    31.4 secs   av.it.:   8.7
      thresh= 2.346E-04 alpha_mix =  0.700 |ddv_scf|^2 =  1.328E-06

      iter #   3 total cpu time :    31.6 secs   av.it.:   8.5
      thresh= 1.152E-04 alpha_mix =  0.700 |ddv_scf|^2 =  4.213E-08

      iter #   4 total cpu time :    31.8 secs   av.it.:   8.2
      thresh= 2.053E-05 alpha_mix =  0.700 |ddv_scf|^2 =  6.832E-10

      iter #   5 total cpu time :    32.0 secs   av.it.:   8.5
      thresh= 2.614E-06 alpha_mix =  0.700 |ddv_scf|^2 =  6.822E-12

      iter #   6 total cpu time :    32.2 secs   av.it.:   7.9
      thresh= 2.612E-07 alpha_mix =  0.700 |ddv_scf|^2 =  6.965E-14

     End of self-consistent calculation

     Convergence has been achieved 


     Representation #  3 modes #   3  4

     Self-consistent Calculation

      iter #   1 total cpu time :    32.6 secs   av.it.:   5.0
      thresh= 1.000E-02 alpha_mix =  0.700 |ddv_scf|^2 =  1.024E-06

      iter #   2 total cpu time :    33.5 secs   av.it.:   9.7
      thresh= 1.012E-04 alpha_mix =  0.700 |ddv_scf|^2 =  1.267E-07

      iter #   3 total cpu time :    33.9 secs   av.it.:   9.5
      thresh= 3.560E-05 alpha_mix =  0.700 |ddv_scf|^2 =  6.635E-09

      iter #   4 total cpu time :    34.4 secs   av.it.:   8.8
      thresh= 8.146E-06 alpha_mix =  0.700 |ddv_scf|^2 =  9.322E-12

      iter #   5 total cpu time :    35.2 secs   av.it.:   9.1
      thresh= 3.053E-07 alpha_mix =  0.700 |ddv_scf|^2 =  2.842E-13

     End of self-consistent calculation

     Convergence has been achieved 


     Representation #  4 modes #   5  6

     Self-consistent Calculation

      iter #   1 total cpu time :    35.5 secs   av.it.:   5.0
      thresh= 1.000E-02 alpha_mix =  0.700 |ddv_scf|^2 =  9.079E-07

      iter #   2 total cpu time :    36.0 secs   av.it.:   9.8
      thresh= 9.528E-05 alpha_mix =  0.700 |ddv_scf|^2 =  1.150E-07

      iter #   3 total cpu time :    36.5 secs   av.it.:   9.4
      thresh= 3.391E-05 alpha_mix =  0.700 |ddv_scf|^2 =  6.108E-09

      iter #   4 total cpu time :    37.3 secs   av.it.:   8.9
      thresh= 7.815E-06 alpha_mix =  0.700 |ddv_scf|^2 =  1.399E-11

      iter #   5 total cpu time :    37.7 secs   av.it.:   9.2
      thresh= 3.740E-07 alpha_mix =  0.700 |ddv_scf|^2 =  4.292E-14

     End of self-consistent calculation

     Convergence has been achieved 

     Number of q in the star =    6
     List of q in the star:
          1   0.000000000   0.500000000   0.000000000
          2   0.000000000  -0.500000000   0.000000000
          3   0.500000000   0.000000000   0.000000000
          4   0.000000000   0.000000000   0.500000000
          5   0.000000000   0.000000000  -0.500000000
          6  -0.500000000   0.000000000   0.000000000

     Diagonalizing the dynamical matrix

     q = (    0.000000000   0.500000000   0.000000000 ) 

 **************************************************************************
     freq (    1) =       4.209447 [THz] =     140.412036 [cm-1]
     freq (    2) =       4.209447 [THz] =     140.412036 [cm-1]
     freq (    3) =       7.206814 [THz] =     240.393425 [cm-1]
     freq (    4) =      13.768328 [THz] =     459.261982 [cm-1]
     freq (    5) =      13.768328 [THz] =     459.261982 [cm-1]
     freq (    6) =      14.369310 [THz] =     479.308600 [cm-1]
 **************************************************************************

     Mode symmetry, C_4v (4mm)  point group:

     freq (  1 -  2) =        140.4  [cm-1]   --> E    G_5 D_5       
     freq (  3 -  3) =        240.4  [cm-1]   --> A_1  G_1 D_1       
     freq (  4 -  5) =        459.3  [cm-1]   --> E    G_5 D_5       
     freq (  6 -  6) =        479.3  [cm-1]   --> B_2  G_4 D_2'      

     Calculation of q =    0.7500000  -0.2500000   0.7500000

   Info: using nr1, nr2, nr3 values from input

   Info: using nr1, nr2, nr3 values from input

     Parallelization info
     --------------------
     sticks:   dense  smooth     PW     G-vecs:    dense   smooth      PW
     Min          63      63     30                  684      684     216
     Max          64      64     31                  688      688     218
     Sum         253     253    121                 2741     2741     869



     bravais-lattice index     =            2
     lattice parameter (alat)  =      10.3220  a.u.
     unit-cell volume          =     274.9360 (a.u.)^3
     number of atoms/cell      =            2
     number of atomic types    =            1
     number of electrons       =         8.00
     number of Kohn-Sham states=            4
     kinetic-energy cutoff     =      18.0000  Ry
     charge density cutoff     =      72.0000  Ry
     Exchange-correlation      = SLA  PW   PBE  PBE ( 1  4  3  4 0 0)

     celldm(1)=  10.322000  celldm(2)=   0.000000  celldm(3)=   0.000000
     celldm(4)=   0.000000  celldm(5)=   0.000000  celldm(6)=   0.000000

     crystal axes: (cart. coord. in units of alat)
               a(1) = (  -0.500000   0.000000   0.500000 )  
               a(2) = (   0.000000   0.500000   0.500000 )  
               a(3) = (  -0.500000   0.500000   0.000000 )  

     reciprocal axes: (cart. coord. in units 2 pi/alat)
               b(1) = ( -1.000000 -1.000000  1.000000 )  
               b(2) = (  1.000000  1.000000  1.000000 )  
               b(3) = ( -1.000000  1.000000 -1.000000 )  


     PseudoPot. # 1 for Si read from file:
     /home/max/quantum_espresso/qe-6.1/pseudo/si_pbe_v1.uspp.F.UPF.txt
     MD5 check sum: a056efeee980c13900f22a371efd63c1
     Pseudo is Ultrasoft + core correction, Zval =  4.0
     Generated by new atomic code, or converted to UPF format
     Using radial grid of  899 points,  6 beta functions with: 
                l(1) =   0
                l(2) =   0
                l(3) =   1
                l(4) =   1
                l(5) =   2
                l(6) =   2
     Q(r) pseudized with  8 coefficients,  rinner =    0.900   0.900   0.900
                                                       0.900   0.900

     atomic species   valence    mass     pseudopotential
        Si             4.00    28.08600     Si( 1.00)

     48 Sym. Ops., with inversion, found



   Cartesian axes

     site n.     atom                  positions (alat units)
         1           Si  tau(   1) = (   0.0000000   0.0000000   0.0000000  )
         2           Si  tau(   2) = (   0.2500000   0.2500000   0.2500000  )

     number of k points=   288

     Number of k-points >= 100: set verbosity='high' to print them.

     Dense  grid:     2741 G-vectors     FFT dimensions: (  20,  20,  20)

     Estimated max dynamical RAM per process >       0.33MB

     Estimated total allocated dynamical RAM >       1.30MB

     Check: negative/imaginary core charge=   -0.000005    0.000000

     The potential is recalculated from file :
     ./_ph0/silicon.10.322.save/charge-density.dat

     Starting wfc are    8 atomic wfcs

     Band Structure Calculation
     Davidson diagonalization with overlap

     ethr =  1.25E-10,  avg # of iterations = 11.6

     total cpu time spent up to now is        5.2 secs

     End of band structure calculation

     Number of k-points >= 100: set verbosity='high' to print the bands.

     highest occupied level (ev):     5.7335

     Writing output data file silicon.10.322.save

                                                                                

     bravais-lattice index     =            2
     lattice parameter (alat)  =      10.3220  a.u.
     unit-cell volume          =     274.9360 (a.u.)^3
     number of atoms/cell      =            2
     number of atomic types    =            1
     kinetic-energy cut-off    =      18.0000  Ry
     charge density cut-off    =      72.0000  Ry
     convergence threshold     =      1.0E-12
     beta                      =       0.7000
     number of iterations used =            4
     Exchange-correlation      = SLA  PW   PBE  PBE ( 1  4  3  4 0 0)


     celldm(1)=   10.32200  celldm(2)=    0.00000  celldm(3)=    0.00000
     celldm(4)=    0.00000  celldm(5)=    0.00000  celldm(6)=    0.00000

     crystal axes: (cart. coord. in units of alat)
               a(1) = ( -0.5000  0.0000  0.5000 )  
               a(2) = (  0.0000  0.5000  0.5000 )  
               a(3) = ( -0.5000  0.5000  0.0000 )  

     reciprocal axes: (cart. coord. in units 2 pi/alat)
               b(1) = ( -1.0000 -1.0000  1.0000 )  
               b(2) = (  1.0000  1.0000  1.0000 )  
               b(3) = ( -1.0000  1.0000 -1.0000 )  


     Atoms inside the unit cell: 

     Cartesian axes

     site n.  atom      mass           positions (alat units)
        1     Si  28.0860   tau(    1) = (    0.00000    0.00000    0.00000  )
        2     Si  28.0860   tau(    2) = (    0.25000    0.25000    0.25000  )

     Computing dynamical matrix for 
                    q = (   0.7500000  -0.2500000   0.7500000 )

      2 Sym.Ops. (no q -> -q+G )


     G cutoff =  194.3124  (    685 G-vectors)     FFT grid: ( 20, 20, 20)
     number of k points=   288

     PseudoPot. # 1 for Si read from file:
     /home/max/quantum_espresso/qe-6.1/pseudo/si_pbe_v1.uspp.F.UPF.txt
     MD5 check sum: a056efeee980c13900f22a371efd63c1
     Pseudo is Ultrasoft + core correction, Zval =  4.0
     Generated by new atomic code, or converted to UPF format
     Using radial grid of  899 points,  6 beta functions with: 
                l(1) =   0
                l(2) =   0
                l(3) =   1
                l(4) =   1
                l(5) =   2
                l(6) =   2
     Q(r) pseudized with  8 coefficients,  rinner =    0.900   0.900   0.900
                                                       0.900   0.900

     Mode symmetry, C_s (m)     point group:


     Atomic displacements:
     There are   6 irreducible representations

     Representation     1      1 modes -A'  To be done

     Representation     2      1 modes -A'  To be done

     Representation     3      1 modes -A'  To be done

     Representation     4      1 modes -A'  To be done

     Representation     5      1 modes -A''  To be done

     Representation     6      1 modes -A''  To be done



     Alpha used in Ewald sum =   0.7000
     PHONON       :    36.19s CPU        41.40s WALL



     Representation #  1 mode #   1

     Self-consistent Calculation

      iter #   1 total cpu time :    42.0 secs   av.it.:   5.3
      thresh= 1.000E-02 alpha_mix =  0.700 |ddv_scf|^2 =  6.133E-05

      iter #   2 total cpu time :    42.9 secs   av.it.:   8.9
      thresh= 7.831E-04 alpha_mix =  0.700 |ddv_scf|^2 =  1.602E-04

      iter #   3 total cpu time :    43.8 secs   av.it.:   7.6
      thresh= 1.266E-03 alpha_mix =  0.700 |ddv_scf|^2 =  1.141E-06

      iter #   4 total cpu time :    44.6 secs   av.it.:   8.4
      thresh= 1.068E-04 alpha_mix =  0.700 |ddv_scf|^2 =  5.574E-08

      iter #   5 total cpu time :    45.6 secs   av.it.:   8.3
      thresh= 2.361E-05 alpha_mix =  0.700 |ddv_scf|^2 =  7.229E-09

      iter #   6 total cpu time :    46.4 secs   av.it.:   8.5
      thresh= 8.503E-06 alpha_mix =  0.700 |ddv_scf|^2 =  7.844E-11

      iter #   7 total cpu time :    47.3 secs   av.it.:   8.8
      thresh= 8.857E-07 alpha_mix =  0.700 |ddv_scf|^2 =  2.860E-12

      iter #   8 total cpu time :    48.1 secs   av.it.:   8.6
      thresh= 1.691E-07 alpha_mix =  0.700 |ddv_scf|^2 =  2.320E-13

     End of self-consistent calculation

     Convergence has been achieved 


     Representation #  2 mode #   2

     Self-consistent Calculation

      iter #   1 total cpu time :    48.7 secs   av.it.:   5.4
      thresh= 1.000E-02 alpha_mix =  0.700 |ddv_scf|^2 =  1.093E-04

      iter #   2 total cpu time :    49.6 secs   av.it.:   8.7
      thresh= 1.045E-03 alpha_mix =  0.700 |ddv_scf|^2 =  3.111E-04

      iter #   3 total cpu time :    50.3 secs   av.it.:   7.4
      thresh= 1.764E-03 alpha_mix =  0.700 |ddv_scf|^2 =  7.798E-07

      iter #   4 total cpu time :    51.2 secs   av.it.:   8.6
      thresh= 8.831E-05 alpha_mix =  0.700 |ddv_scf|^2 =  5.538E-08

      iter #   5 total cpu time :    52.0 secs   av.it.:   8.2
      thresh= 2.353E-05 alpha_mix =  0.700 |ddv_scf|^2 =  1.015E-08

      iter #   6 total cpu time :    52.7 secs   av.it.:   8.5
      thresh= 1.007E-05 alpha_mix =  0.700 |ddv_scf|^2 =  7.813E-11

      iter #   7 total cpu time :    53.7 secs   av.it.:   8.8
      thresh= 8.839E-07 alpha_mix =  0.700 |ddv_scf|^2 =  2.447E-12

      iter #   8 total cpu time :    54.4 secs   av.it.:   8.7
      thresh= 1.564E-07 alpha_mix =  0.700 |ddv_scf|^2 =  5.301E-13

     End of self-consistent calculation

     Convergence has been achieved 


     Representation #  3 mode #   3

     Self-consistent Calculation

      iter #   1 total cpu time :    55.2 secs   av.it.:   5.3
      thresh= 1.000E-02 alpha_mix =  0.700 |ddv_scf|^2 =  8.568E-05

      iter #   2 total cpu time :    56.0 secs   av.it.:   8.8
      thresh= 9.256E-04 alpha_mix =  0.700 |ddv_scf|^2 =  2.284E-04

      iter #   3 total cpu time :    56.7 secs   av.it.:   7.4
      thresh= 1.511E-03 alpha_mix =  0.700 |ddv_scf|^2 =  1.333E-06

      iter #   4 total cpu time :    57.6 secs   av.it.:   8.2
      thresh= 1.155E-04 alpha_mix =  0.700 |ddv_scf|^2 =  5.644E-08

      iter #   5 total cpu time :    58.3 secs   av.it.:   8.4
      thresh= 2.376E-05 alpha_mix =  0.700 |ddv_scf|^2 =  1.038E-08

      iter #   6 total cpu time :    59.2 secs   av.it.:   8.5
      thresh= 1.019E-05 alpha_mix =  0.700 |ddv_scf|^2 =  4.605E-11

      iter #   7 total cpu time :    60.0 secs   av.it.:   8.7
      thresh= 6.786E-07 alpha_mix =  0.700 |ddv_scf|^2 =  1.592E-12

      iter #   8 total cpu time :    60.9 secs   av.it.:   8.8
      thresh= 1.262E-07 alpha_mix =  0.700 |ddv_scf|^2 =  2.687E-13

     End of self-consistent calculation

     Convergence has been achieved 


     Representation #  4 mode #   4

     Self-consistent Calculation

      iter #   1 total cpu time :    61.6 secs   av.it.:   5.2
      thresh= 1.000E-02 alpha_mix =  0.700 |ddv_scf|^2 =  3.778E-05

      iter #   2 total cpu time :    62.4 secs   av.it.:   8.9
[...]
        k(   59) = (  -0.8750000   0.1250000  -0.1250000), wk =   0.0625000
        k(   60) = (  -1.3750000  -0.8750000  -0.1250000), wk =   0.0000000
        k(   61) = (  -1.1250000   0.3750000  -0.3750000), wk =   0.0625000
        k(   62) = (  -1.6250000  -0.6250000  -0.3750000), wk =   0.0000000
        k(   63) = (  -0.3750000   0.3750000   1.1250000), wk =   0.0625000
        k(   64) = (  -0.8750000  -0.6250000   1.1250000), wk =   0.0000000

     Dense  grid:     2741 G-vectors     FFT dimensions: (  20,  20,  20)

     Estimated max dynamical RAM per process >       0.33MB

     Estimated total allocated dynamical RAM >       1.30MB

     Check: negative/imaginary core charge=   -0.000005    0.000000

     The potential is recalculated from file :
     ./_ph0/silicon.10.322.save/charge-density.dat

     Starting wfc are    8 atomic wfcs

     Band Structure Calculation
     Davidson diagonalization with overlap

     ethr =  1.25E-10,  avg # of iterations = 11.6

     total cpu time spent up to now is        7.8 secs

     End of band structure calculation

          k =-0.1250 0.1250 0.1250 (   338 PWs)   bands (ev):

    -5.6183   4.4249   5.7335   5.7335

          k =-0.6250-0.8750 0.1250 (   359 PWs)   bands (ev):

    -2.4170  -0.8739   2.0442   3.1192

          k =-0.3750 0.3750-0.1250 (   352 PWs)   bands (ev):

    -4.5914   1.4270   3.7469   5.2508

          k =-0.8750-0.6250-0.1250 (   359 PWs)   bands (ev):

    -2.4170  -0.8739   2.0442   3.1192

          k = 0.3750-0.3750 0.6250 (   359 PWs)   bands (ev):

    -3.4514  -0.6527   3.7668   4.4782

          k =-0.1250-1.3750 0.6250 (   361 PWs)   bands (ev):

    -2.9551  -0.5696   2.1024   4.1612

          k = 0.1250-0.1250 0.3750 (   349 PWs)   bands (ev):

    -5.0905   2.8052   4.7232   4.7891

          k =-0.3750-1.1250 0.3750 (   361 PWs)   bands (ev):

    -2.9551  -0.5696   2.1024   4.1612

          k =-0.1250 0.6250 0.1250 (   349 PWs)   bands (ev):

    -4.0581   1.0918   3.3977   3.8475

          k =-0.6250-0.3750 0.1250 (   357 PWs)   bands (ev):

    -3.6427   0.2178   2.7566   4.1238

          k = 0.6250-0.1250 0.8750 (   359 PWs)   bands (ev):

    -2.4170  -0.8739   2.0442   3.1192

          k = 0.1250-1.1250 0.8750 (   358 PWs)   bands (ev):

    -2.5847  -0.7764   2.6524   3.3797

          k = 0.3750 0.1250 0.6250 (   357 PWs)   bands (ev):

    -3.6427   0.2178   2.7566   4.1238

          k =-0.1250-0.8750 0.6250 (   359 PWs)   bands (ev):

    -2.4170  -0.8739   2.0442   3.1192

          k =-0.1250-0.8750 0.1250 (   358 PWs)   bands (ev):

    -2.5847  -0.7764   2.6524   3.3797

          k =-0.6250-1.8750 0.1250 (   349 PWs)   bands (ev):

    -4.0581   1.0918   3.3977   3.8475

          k =-0.3750 0.3750 0.3750 (   353 PWs)   bands (ev):

    -4.1587   0.1365   4.9436   4.9436

          k =-0.8750-0.6250 0.3750 (   357 PWs)   bands (ev):

    -3.6427   0.2178   2.7566   4.1238

          k = 0.3750-0.3750 1.1250 (   361 PWs)   bands (ev):

    -2.9551  -0.5696   2.1024   4.1612

          k =-0.1250-1.3750 1.1250 (   359 PWs)   bands (ev):

    -2.4170  -0.8739   2.0442   3.1192

          k = 0.1250-0.3750 0.3750 (   352 PWs)   bands (ev):

    -4.5914   1.4270   3.7469   5.2508

          k =-0.3750-1.3750 0.3750 (   359 PWs)   bands (ev):

    -3.4514  -0.6527   3.7668   4.4782

          k = 0.3750-0.3750-0.1250 (   352 PWs)   bands (ev):

    -4.5914   1.4270   3.7469   5.2508

          k =-0.1250-1.3750-0.1250 (   349 PWs)   bands (ev):

    -4.0581   1.0918   3.3977   3.8475

          k =-0.6250 0.3750-0.3750 (   359 PWs)   bands (ev):

    -3.4514  -0.6527   3.7668   4.4782

          k =-1.1250-0.6250-0.3750 (   357 PWs)   bands (ev):

    -3.6427   0.2178   2.7566   4.1238

          k =-0.3750 0.3750 0.6250 (   359 PWs)   bands (ev):

    -3.4514  -0.6527   3.7668   4.4782

          k =-0.8750-0.6250 0.6250 (   352 PWs)   bands (ev):

    -4.5914   1.4270   3.7469   5.2508

          k =-0.3750 0.1250-0.1250 (   349 PWs)   bands (ev):

    -5.0905   2.8052   4.7232   4.7891

          k =-0.8750-0.8750-0.1250 (   358 PWs)   bands (ev):

    -2.5847  -0.7764   2.6524   3.3797

          k =-0.1250 0.1250 0.3750 (   349 PWs)   bands (ev):

    -5.0905   2.8052   4.7232   4.7891

          k =-0.6250-0.8750 0.3750 (   357 PWs)   bands (ev):

    -3.6427   0.2178   2.7566   4.1238

          k = 0.1250 0.6250-0.1250 (   349 PWs)   bands (ev):

    -4.0581   1.0918   3.3977   3.8475

          k =-0.3750-0.3750-0.1250 (   352 PWs)   bands (ev):

    -4.5914   1.4270   3.7469   5.2508

          k = 0.6250 0.1250-0.1250 (   349 PWs)   bands (ev):

    -4.0581   1.0918   3.3977   3.8475

          k = 0.1250-0.8750-0.1250 (   358 PWs)   bands (ev):

    -2.5847  -0.7764   2.6524   3.3797

          k =-0.8750 0.1250-0.6250 (   359 PWs)   bands (ev):

    -2.4170  -0.8739   2.0442   3.1192

          k =-1.3750-0.8750-0.6250 (   352 PWs)   bands (ev):

    -4.5914   1.4270   3.7469   5.2508

          k = 0.8750-0.1250 0.6250 (   359 PWs)   bands (ev):

    -2.4170  -0.8739   2.0442   3.1192

          k = 0.3750-1.1250 0.6250 (   357 PWs)   bands (ev):

    -3.6427   0.2178   2.7566   4.1238

          k =-0.6250 0.1250 0.8750 (   359 PWs)   bands (ev):

    -2.4170  -0.8739   2.0442   3.1192

          k =-1.1250-0.8750 0.8750 (   338 PWs)   bands (ev):

    -5.6183   4.4249   5.7335   5.7335

          k =-0.1250 0.8750 0.6250 (   359 PWs)   bands (ev):

    -2.4170  -0.8739   2.0442   3.1192

          k =-0.6250-0.1250 0.6250 (   361 PWs)   bands (ev):

    -2.9551  -0.5696   2.1024   4.1612

          k = 0.1250 0.8750-0.6250 (   359 PWs)   bands (ev):

    -2.4170  -0.8739   2.0442   3.1192

          k =-0.3750-0.1250-0.6250 (   357 PWs)   bands (ev):

    -3.6427   0.2178   2.7566   4.1238

          k =-0.6250-0.1250-0.3750 (   357 PWs)   bands (ev):

    -3.6427   0.2178   2.7566   4.1238

          k =-1.1250-1.1250-0.3750 (   349 PWs)   bands (ev):

    -4.0581   1.0918   3.3977   3.8475

          k = 0.6250 0.1250 0.3750 (   357 PWs)   bands (ev):

    -3.6427   0.2178   2.7566   4.1238

          k = 0.1250-0.8750 0.3750 (   359 PWs)   bands (ev):

    -2.4170  -0.8739   2.0442   3.1192

          k =-0.3750-0.1250 0.6250 (   357 PWs)   bands (ev):

    -3.6427   0.2178   2.7566   4.1238

          k =-0.8750-1.1250 0.6250 (   349 PWs)   bands (ev):

    -5.0905   2.8052   4.7232   4.7891

          k = 0.1250 0.6250 0.3750 (   357 PWs)   bands (ev):

    -3.6427   0.2178   2.7566   4.1238

          k =-0.3750-0.3750 0.3750 (   353 PWs)   bands (ev):

    -4.1587   0.1365   4.9436   4.9436

          k =-0.1250 0.6250-0.3750 (   357 PWs)   bands (ev):

    -3.6427   0.2178   2.7566   4.1238

          k =-0.6250-0.3750-0.3750 (   359 PWs)   bands (ev):

    -3.4514  -0.6527   3.7668   4.4782

          k = 0.1250-0.8750-0.1250 (   358 PWs)   bands (ev):

    -2.5847  -0.7764   2.6524   3.3797

          k =-0.3750-1.8750-0.1250 (   349 PWs)   bands (ev):

    -5.0905   2.8052   4.7232   4.7891

          k =-0.8750 0.1250-0.1250 (   358 PWs)   bands (ev):

    -2.5847  -0.7764   2.6524   3.3797

          k =-1.3750-0.8750-0.1250 (   359 PWs)   bands (ev):

    -2.4170  -0.8739   2.0442   3.1192

          k =-1.1250 0.3750-0.3750 (   361 PWs)   bands (ev):

    -2.9551  -0.5696   2.1024   4.1612

          k =-1.6250-0.6250-0.3750 (   359 PWs)   bands (ev):

    -3.4514  -0.6527   3.7668   4.4782

          k =-0.3750 0.3750 1.1250 (   361 PWs)   bands (ev):

    -2.9551  -0.5696   2.1024   4.1612

          k =-0.8750-0.6250 1.1250 (   349 PWs)   bands (ev):

    -5.0905   2.8052   4.7232   4.7891

     highest occupied level (ev):     5.7335

     Writing output data file silicon.10.322.save

                                                                                

     bravais-lattice index     =            2
     lattice parameter (alat)  =      10.3220  a.u.
     unit-cell volume          =     274.9360 (a.u.)^3
     number of atoms/cell      =            2
     number of atomic types    =            1
     kinetic-energy cut-off    =      18.0000  Ry
     charge density cut-off    =      72.0000  Ry
     convergence threshold     =      1.0E-12
     beta                      =       0.7000
     number of iterations used =            4
     Exchange-correlation      = SLA  PW   PBE  PBE ( 1  4  3  4 0 0)


     celldm(1)=   10.32200  celldm(2)=    0.00000  celldm(3)=    0.00000
     celldm(4)=    0.00000  celldm(5)=    0.00000  celldm(6)=    0.00000

     crystal axes: (cart. coord. in units of alat)
               a(1) = ( -0.5000  0.0000  0.5000 )  
               a(2) = (  0.0000  0.5000  0.5000 )  
               a(3) = ( -0.5000  0.5000  0.0000 )  

     reciprocal axes: (cart. coord. in units 2 pi/alat)
               b(1) = ( -1.0000 -1.0000  1.0000 )  
               b(2) = (  1.0000  1.0000  1.0000 )  
               b(3) = ( -1.0000  1.0000 -1.0000 )  


     Atoms inside the unit cell: 

     Cartesian axes

     site n.  atom      mass           positions (alat units)
        1     Si  28.0860   tau(    1) = (    0.00000    0.00000    0.00000  )
        2     Si  28.0860   tau(    2) = (    0.25000    0.25000    0.25000  )

     Computing dynamical matrix for 
                    q = (  -0.5000000  -1.0000000   0.0000000 )

      8 Sym.Ops. (no q -> -q+G )


     G cutoff =  194.3124  (    685 G-vectors)     FFT grid: ( 20, 20, 20)
     number of k points=    64

     PseudoPot. # 1 for Si read from file:
     /home/max/quantum_espresso/qe-6.1/pseudo/si_pbe_v1.uspp.F.UPF.txt
     MD5 check sum: a056efeee980c13900f22a371efd63c1
     Pseudo is Ultrasoft + core correction, Zval =  4.0
     Generated by new atomic code, or converted to UPF format
     Using radial grid of  899 points,  6 beta functions with: 
                l(1) =   0
                l(2) =   0
                l(3) =   1
                l(4) =   1
                l(5) =   2
                l(6) =   2
     Q(r) pseudized with  8 coefficients,  rinner =    0.900   0.900   0.900
                                                       0.900   0.900


     Atomic displacements:
     There are   3 irreducible representations

     Representation     1      2 modes -  To be done

     Representation     2      2 modes -  To be done

     Representation     3      2 modes -  To be done



     Alpha used in Ewald sum =   0.7000
     PHONON       :  1m29.08s CPU     1m37.59s WALL



     Representation #  1 modes #   1  2

     Self-consistent Calculation

      iter #   1 total cpu time :    97.9 secs   av.it.:   5.3
      thresh= 1.000E-02 alpha_mix =  0.700 |ddv_scf|^2 =  6.353E-06

      iter #   2 total cpu time :    98.2 secs   av.it.:   9.9
      thresh= 2.521E-04 alpha_mix =  0.700 |ddv_scf|^2 =  3.444E-06

      iter #   3 total cpu time :    98.6 secs   av.it.:   9.3
      thresh= 1.856E-04 alpha_mix =  0.700 |ddv_scf|^2 =  8.387E-09

      iter #   4 total cpu time :    99.1 secs   av.it.:   9.1
      thresh= 9.158E-06 alpha_mix =  0.700 |ddv_scf|^2 =  1.910E-11

      iter #   5 total cpu time :    99.5 secs   av.it.:   9.2
      thresh= 4.370E-07 alpha_mix =  0.700 |ddv_scf|^2 =  5.270E-13

     End of self-consistent calculation

     Convergence has been achieved 


     Representation #  2 modes #   3  4

     Self-consistent Calculation

      iter #   1 total cpu time :    99.8 secs   av.it.:   5.2
      thresh= 1.000E-02 alpha_mix =  0.700 |ddv_scf|^2 =  9.834E-06

      iter #   2 total cpu time :   100.2 secs   av.it.:   9.9
      thresh= 3.136E-04 alpha_mix =  0.700 |ddv_scf|^2 =  1.304E-05

      iter #   3 total cpu time :   100.5 secs   av.it.:   9.1
      thresh= 3.611E-04 alpha_mix =  0.700 |ddv_scf|^2 =  9.848E-09

      iter #   4 total cpu time :   101.1 secs   av.it.:   8.9
      thresh= 9.924E-06 alpha_mix =  0.700 |ddv_scf|^2 =  7.921E-11

      iter #   5 total cpu time :   101.5 secs   av.it.:   9.4
      thresh= 8.900E-07 alpha_mix =  0.700 |ddv_scf|^2 =  1.714E-12

      iter #   6 total cpu time :   101.8 secs   av.it.:   9.1
      thresh= 1.309E-07 alpha_mix =  0.700 |ddv_scf|^2 =  1.432E-14

     End of self-consistent calculation

     Convergence has been achieved 


     Representation #  3 modes #   5  6

     Self-consistent Calculation

      iter #   1 total cpu time :   102.1 secs   av.it.:   5.1
      thresh= 1.000E-02 alpha_mix =  0.700 |ddv_scf|^2 =  2.658E-06

      iter #   2 total cpu time :   102.5 secs   av.it.:   9.7
      thresh= 1.630E-04 alpha_mix =  0.700 |ddv_scf|^2 =  1.453E-06

      iter #   3 total cpu time :   103.0 secs   av.it.:   9.1
      thresh= 1.205E-04 alpha_mix =  0.700 |ddv_scf|^2 =  8.261E-09

      iter #   4 total cpu time :   103.4 secs   av.it.:   8.8
      thresh= 9.089E-06 alpha_mix =  0.700 |ddv_scf|^2 =  4.264E-11

      iter #   5 total cpu time :   103.7 secs   av.it.:   9.1
      thresh= 6.530E-07 alpha_mix =  0.700 |ddv_scf|^2 =  6.995E-13

     End of self-consistent calculation

     Convergence has been achieved 

     Number of q in the star =    6
     List of q in the star:
          1  -0.500000000  -1.000000000   0.000000000
          2   0.000000000   1.000000000   0.500000000
          3   0.000000000  -1.000000000  -0.500000000
          4   0.500000000   1.000000000   0.000000000
          5  -1.000000000  -0.500000000   0.000000000
          6   0.000000000  -0.500000000  -1.000000000

     Diagonalizing the dynamical matrix

     q = (   -0.500000000  -1.000000000   0.000000000 ) 

 **************************************************************************
     freq (    1) =       6.975987 [THz] =     232.693879 [cm-1]
     freq (    2) =       6.975987 [THz] =     232.693879 [cm-1]
     freq (    3) =      10.811529 [THz] =     360.633803 [cm-1]
     freq (    4) =      10.811529 [THz] =     360.633803 [cm-1]
     freq (    5) =      13.842576 [THz] =     461.738626 [cm-1]
     freq (    6) =      13.842576 [THz] =     461.738626 [cm-1]
 **************************************************************************

     init_run     :      0.59s CPU      0.67s WALL (       7 calls)
     electrons    :      5.73s CPU      6.37s WALL (       7 calls)

     Called by init_run:
     wfcinit      :      0.00s CPU      0.00s WALL (       7 calls)
     potinit      :      0.02s CPU      0.02s WALL (       7 calls)

     Called by electrons:
     c_bands      :      5.73s CPU      6.36s WALL (       7 calls)
     v_of_rho     :      0.01s CPU      0.01s WALL (       8 calls)
     newd         :      0.03s CPU      0.03s WALL (       8 calls)

     Called by c_bands:
     init_us_2    :      0.68s CPU      0.72s WALL (   17588 calls)
     cegterg      :      4.80s CPU      5.29s WALL (     796 calls)

     Called by sum_band:

     Called by *egterg:
     h_psi        :     52.02s CPU     56.75s WALL (  152207 calls)
     s_psi        :      5.78s CPU      6.19s WALL (  309134 calls)
     g_psi        :      0.03s CPU      0.03s WALL (    9268 calls)
     cdiaghg      :      0.45s CPU      0.49s WALL (   10064 calls)

     Called by h_psi:
     h_psi:pot    :     51.83s CPU     56.55s WALL (  152207 calls)
     h_psi:calbec :      5.63s CPU      6.22s WALL (  152207 calls)
     vloc_psi     :     43.09s CPU     46.98s WALL (  152207 calls)
     add_vuspsi   :      2.89s CPU      3.13s WALL (  152207 calls)

     General routines
     calbec       :     12.44s CPU     13.78s WALL (  345506 calls)
     fft          :      0.67s CPU      0.75s WALL (    5239 calls)
     ffts         :      0.16s CPU      0.17s WALL (    2748 calls)
     fftw         :     50.66s CPU     55.47s WALL ( 1378250 calls)
     davcio       :      0.30s CPU      0.32s WALL (   79045 calls)

     Parallel routines
     fft_scatter  :     18.76s CPU     21.25s WALL ( 1386237 calls)

     PHONON       :  1m34.76s CPU     1m43.76s WALL

     INITIALIZATION: 
     phq_setup    :      0.06s CPU      0.06s WALL (       8 calls)
     phq_init     :      2.73s CPU      3.18s WALL (       8 calls)

     phq_init     :      2.73s CPU      3.18s WALL (       8 calls)
     set_drhoc    :      0.28s CPU      0.30s WALL (      24 calls)
     init_vloc    :      0.01s CPU      0.01s WALL (       8 calls)
     init_us_1    :      0.54s CPU      0.59s WALL (       8 calls)
     newd         :      0.03s CPU      0.03s WALL (       8 calls)
     dvanqq       :      0.27s CPU      0.27s WALL (       8 calls)
     drho         :      1.50s CPU      1.90s WALL (       8 calls)

     DYNAMICAL MATRIX:
     dynmat0      :      0.71s CPU      0.75s WALL (       8 calls)
     phqscf       :     82.96s CPU     90.41s WALL (       8 calls)
     dynmatrix    :      0.01s CPU      0.02s WALL (       8 calls)

     phqscf       :     82.96s CPU     90.41s WALL (       8 calls)
     solve_linter :     82.10s CPU     89.44s WALL (      32 calls)
     drhodv       :      0.61s CPU      0.64s WALL (      32 calls)

     dynmat0      :      0.71s CPU      0.75s WALL (       8 calls)
     dynmat_us    :      0.47s CPU      0.48s WALL (       8 calls)
     d2ionq       :      0.01s CPU      0.01s WALL (       8 calls)
     dynmatcc     :      0.22s CPU      0.25s WALL (       8 calls)

     dynmat_us    :      0.47s CPU      0.48s WALL (       8 calls)
     addusdynmat  :      0.00s CPU      0.00s WALL (       8 calls)

     phqscf       :     82.96s CPU     90.41s WALL (       8 calls)
     solve_linter :     82.10s CPU     89.44s WALL (      32 calls)

     solve_linter :     82.10s CPU     89.44s WALL (      32 calls)
     dvqpsi_us    :      1.78s CPU      1.92s WALL (    2508 calls)
     ortho        :      1.54s CPU      1.71s WALL (   15550 calls)
     cgsolve      :     64.59s CPU     70.45s WALL (   15550 calls)
     incdrhoscf   :      5.73s CPU      6.26s WALL (   15550 calls)
     addusddens   :      1.27s CPU      1.34s WALL (     228 calls)
     vpsifft      :      4.16s CPU      4.57s WALL (   12922 calls)
     dv_of_drho   :      0.24s CPU      0.28s WALL (     295 calls)
     mix_pot      :      0.06s CPU      0.07s WALL (     201 calls)
     psymdvscf    :      0.82s CPU      0.86s WALL (     196 calls)
     newdq        :      1.31s CPU      1.45s WALL (     201 calls)
     adddvscf     :      0.46s CPU      0.49s WALL (   13042 calls)
     drhodvus     :      0.00s CPU      0.00s WALL (      32 calls)

     dvqpsi_us    :      1.78s CPU      1.92s WALL (    2508 calls)
     dvqpsi_us_on :      0.83s CPU      0.88s WALL (    2508 calls)

     cgsolve      :     64.59s CPU     70.45s WALL (   15550 calls)
     ch_psi       :     61.54s CPU     66.98s WALL (  141347 calls)

     ch_psi       :     61.54s CPU     66.98s WALL (  141347 calls)
     h_psi        :     52.02s CPU     56.75s WALL (  152207 calls)
     last         :     10.59s CPU     11.60s WALL (  141347 calls)

     h_psi        :     52.02s CPU     56.75s WALL (  152207 calls)
     add_vuspsi   :      2.89s CPU      3.13s WALL (  152207 calls)

     incdrhoscf   :      5.73s CPU      6.26s WALL (   15550 calls)
     addusdbec    :      0.96s CPU      1.12s WALL (   17998 calls)

     drhodvus     :      0.00s CPU      0.00s WALL (      32 calls)

      General routines
     calbec       :     12.44s CPU     13.78s WALL (  345506 calls)
     fft          :      0.67s CPU      0.75s WALL (    5239 calls)
     ffts         :      0.16s CPU      0.17s WALL (    2748 calls)
     fftw         :     50.66s CPU     55.47s WALL ( 1378250 calls)
     davcio       :      0.30s CPU      0.32s WALL (   79045 calls)
     write_rec    :      0.20s CPU      0.23s WALL (     233 calls)


     PHONON       :  1m34.76s CPU     1m43.76s WALL


   This run was terminated on:  12: 5: 0   9Nov2017            

=------------------------------------------------------------------------------=
   JOB DONE.
=------------------------------------------------------------------------------=
