
     Program PHONON v.6.1 (svn rev. 13369) starts on  9Nov2017 at  1:32:42 

     This program is part of the open-source Quantum ESPRESSO suite
     for quantum simulation of materials; please cite
         "P. Giannozzi et al., J. Phys.:Condens. Matter 21 395502 (2009);
          URL http://www.quantum-espresso.org", 
     in publications or presentations arising from this work. More details at
     http://www.quantum-espresso.org/quote

     Parallel version (MPI), running on     4 processors
     R & G space division:  proc/nbgrp/npool/nimage =       4

     Reading data from directory:
     ./silicon.10.40.save

   Info: using nr1, nr2, nr3 values from input

   Info: using nr1, nr2, nr3 values from input

     IMPORTANT: XC functional enforced from input :
     Exchange-correlation      = SLA  PW   PBE  PBE ( 1  4  3  4 0 0)
     Any further DFT definition will be discarded
     Please, verify this is what you really want


     Parallelization info
     --------------------
     sticks:   dense  smooth     PW     G-vecs:    dense   smooth      PW
     Min          66      66     22                  722      722     152
     Max          67      67     23                  724      724     153
     Sum         265     265     91                 2891     2891     609


     Check: negative/imaginary core charge=   -0.000006    0.000000


     Dynamical matrices for ( 4, 4, 4)  uniform grid of q-points
     (   8q-points):
       N         xq(1)         xq(2)         xq(3) 
       1   0.000000000   0.000000000   0.000000000
       2  -0.250000000   0.250000000  -0.250000000
       3   0.500000000  -0.500000000   0.500000000
       4   0.000000000   0.500000000   0.000000000
       5   0.750000000  -0.250000000   0.750000000
       6   0.500000000   0.000000000   0.500000000
       7   0.000000000  -1.000000000   0.000000000
       8  -0.500000000  -1.000000000   0.000000000

     Calculation of q =    0.0000000   0.0000000   0.0000000

                                                                                

     bravais-lattice index     =            2
     lattice parameter (alat)  =      10.4000  a.u.
     unit-cell volume          =     281.2160 (a.u.)^3
     number of atoms/cell      =            2
     number of atomic types    =            1
     kinetic-energy cut-off    =      18.0000  Ry
     charge density cut-off    =      72.0000  Ry
     convergence threshold     =      1.0E-12
     beta                      =       0.7000
     number of iterations used =            4
     Exchange-correlation      = SLA  PW   PBE  PBE ( 1  4  3  4 0 0)


     celldm(1)=   10.40000  celldm(2)=    0.00000  celldm(3)=    0.00000
     celldm(4)=    0.00000  celldm(5)=    0.00000  celldm(6)=    0.00000

     crystal axes: (cart. coord. in units of alat)
               a(1) = ( -0.5000  0.0000  0.5000 )  
               a(2) = (  0.0000  0.5000  0.5000 )  
               a(3) = ( -0.5000  0.5000  0.0000 )  

     reciprocal axes: (cart. coord. in units 2 pi/alat)
               b(1) = ( -1.0000 -1.0000  1.0000 )  
               b(2) = (  1.0000  1.0000  1.0000 )  
               b(3) = ( -1.0000  1.0000 -1.0000 )  


     Atoms inside the unit cell: 

     Cartesian axes

     site n.  atom      mass           positions (alat units)
        1     Si  28.0860   tau(    1) = (    0.00000    0.00000    0.00000  )
        2     Si  28.0860   tau(    2) = (    0.25000    0.25000    0.25000  )

     Computing dynamical matrix for 
                    q = (   0.0000000   0.0000000   0.0000000 )

     49 Sym.Ops. (with q -> -q+G )


     G cutoff =  197.2602  (    722 G-vectors)     FFT grid: ( 20, 20, 20)
     number of k points=    10

     PseudoPot. # 1 for Si read from file:
     /home/max/quantum_espresso/qe-6.1/pseudo/si_pbe_v1.uspp.F.UPF.txt
     MD5 check sum: a056efeee980c13900f22a371efd63c1
     Pseudo is Ultrasoft + core correction, Zval =  4.0
     Generated by new atomic code, or converted to UPF format
     Using radial grid of  899 points,  6 beta functions with: 
                l(1) =   0
                l(2) =   0
                l(3) =   1
                l(4) =   1
                l(5) =   2
                l(6) =   2
     Q(r) pseudized with  8 coefficients,  rinner =    0.900   0.900   0.900
                                                       0.900   0.900

     Mode symmetry, O_h (m-3m)  point group:


     Electric field:
     Dielectric constant
     Born effective charges in two ways 


     Atomic displacements:
     There are   2 irreducible representations

     Representation     1      3 modes -T_2g G_25' G_5+  To be done

     Representation     2      3 modes -T_1u G_15  G_4-  To be done



     Alpha used in Ewald sum =   0.7000
     PHONON       :     0.40s CPU         0.41s WALL


     Electric Fields Calculation

      iter #   1 total cpu time :     0.8 secs   av.it.:   5.6
      thresh= 1.000E-02 alpha_mix =  0.700 |ddv_scf|^2 =  9.569E-07

      iter #   2 total cpu time :     1.0 secs   av.it.:   9.9
      thresh= 9.782E-05 alpha_mix =  0.700 |ddv_scf|^2 =  6.244E-08

      iter #   3 total cpu time :     1.1 secs   av.it.:   9.8
      thresh= 2.499E-05 alpha_mix =  0.700 |ddv_scf|^2 =  4.960E-09

      iter #   4 total cpu time :     1.3 secs   av.it.:   9.0
      thresh= 7.043E-06 alpha_mix =  0.700 |ddv_scf|^2 =  3.007E-11

      iter #   5 total cpu time :     1.5 secs   av.it.:   9.2
      thresh= 5.483E-07 alpha_mix =  0.700 |ddv_scf|^2 =  1.542E-14

     End of electric fields calculation

          Dielectric constant in cartesian axis 

          (      14.020831266      -0.000000000       0.000000000 )
          (      -0.000000000      14.020831266       0.000000000 )
          (       0.000000000       0.000000000      14.020831266 )

          Effective charges (d Force / dE) in cartesian axis

           atom      1   Si 
      Ex  (       -0.03359        0.00000        0.00000 )
      Ey  (       -0.00000       -0.03359       -0.00000 )
      Ez  (        0.00000        0.00000       -0.03359 )
           atom      2   Si 
      Ex  (       -0.03359       -0.00000        0.00000 )
      Ey  (        0.00000       -0.03359       -0.00000 )
      Ez  (       -0.00000       -0.00000       -0.03359 )


     Representation #  1 modes #   1  2  3

     Self-consistent Calculation

      iter #   1 total cpu time :     1.9 secs   av.it.:   5.0
      thresh= 1.000E-02 alpha_mix =  0.700 |ddv_scf|^2 =  1.852E-07

      iter #   2 total cpu time :     2.0 secs   av.it.:  10.0
      thresh= 4.304E-05 alpha_mix =  0.700 |ddv_scf|^2 =  1.023E-08

      iter #   3 total cpu time :     2.2 secs   av.it.:   9.5
      thresh= 1.012E-05 alpha_mix =  0.700 |ddv_scf|^2 =  7.076E-10

      iter #   4 total cpu time :     2.4 secs   av.it.:   9.1
      thresh= 2.660E-06 alpha_mix =  0.700 |ddv_scf|^2 =  1.822E-12

      iter #   5 total cpu time :     2.6 secs   av.it.:   9.4
      thresh= 1.350E-07 alpha_mix =  0.700 |ddv_scf|^2 =  1.539E-14

     End of self-consistent calculation

     Convergence has been achieved 


     Representation #  2 modes #   4  5  6

     Self-consistent Calculation

      iter #   1 total cpu time :     2.8 secs   av.it.:   5.0
      thresh= 1.000E-02 alpha_mix =  0.700 |ddv_scf|^2 =  1.925E-07

      iter #   2 total cpu time :     3.0 secs   av.it.:   9.6
      thresh= 4.387E-05 alpha_mix =  0.700 |ddv_scf|^2 =  1.589E-08

      iter #   3 total cpu time :     3.2 secs   av.it.:   9.2
      thresh= 1.261E-05 alpha_mix =  0.700 |ddv_scf|^2 =  9.542E-10

      iter #   4 total cpu time :     3.3 secs   av.it.:   9.5
      thresh= 3.089E-06 alpha_mix =  0.700 |ddv_scf|^2 =  5.554E-12

      iter #   5 total cpu time :     3.5 secs   av.it.:   9.1
      thresh= 2.357E-07 alpha_mix =  0.700 |ddv_scf|^2 =  5.100E-15

     End of self-consistent calculation

     Convergence has been achieved 

     Number of q in the star =    1
     List of q in the star:
          1   0.000000000   0.000000000   0.000000000

          Dielectric constant in cartesian axis 

          (      14.020831266      -0.000000000       0.000000000 )
          (      -0.000000000      14.020831266       0.000000000 )
          (       0.000000000       0.000000000      14.020831266 )

          Effective charges (d Force / dE) in cartesian axis

           atom      1   Si 
      Ex  (       -0.03359        0.00000        0.00000 )
      Ey  (       -0.00000       -0.03359       -0.00000 )
      Ez  (        0.00000        0.00000       -0.03359 )
           atom      2   Si 
      Ex  (       -0.03359       -0.00000        0.00000 )
      Ey  (        0.00000       -0.03359       -0.00000 )
      Ez  (       -0.00000       -0.00000       -0.03359 )

          Effective charges (d P / du) in cartesian axis 

           atom      1   Si 
      Px  (       -0.07593       -0.00000        0.00000 )
      Py  (       -0.00000       -0.07593        0.00000 )
      Pz  (        0.00000        0.00000       -0.07593 )
           atom      2   Si 
      Px  (       -0.07593        0.00000        0.00000 )
      Py  (        0.00000       -0.07593       -0.00000 )
      Pz  (        0.00000       -0.00000       -0.07593 )

     Diagonalizing the dynamical matrix

     q = (    0.000000000   0.000000000   0.000000000 ) 

 **************************************************************************
     freq (    1) =       1.783513 [THz] =      59.491598 [cm-1]
     freq (    2) =       1.783513 [THz] =      59.491598 [cm-1]
     freq (    3) =       1.783513 [THz] =      59.491598 [cm-1]
     freq (    4) =      15.570071 [THz] =     519.361670 [cm-1]
     freq (    5) =      15.570071 [THz] =     519.361670 [cm-1]
     freq (    6) =      15.570071 [THz] =     519.361670 [cm-1]
 **************************************************************************

     Mode symmetry, O_h (m-3m)  point group:

     freq (  1 -  3) =         59.5  [cm-1]   --> T_1u G_15  G_4- I  
     freq (  4 -  6) =        519.4  [cm-1]   --> T_2g G_25' G_5+ R  

     Calculation of q =   -0.2500000   0.2500000  -0.2500000

   Info: using nr1, nr2, nr3 values from input

   Info: using nr1, nr2, nr3 values from input

     Parallelization info
     --------------------
     sticks:   dense  smooth     PW     G-vecs:    dense   smooth      PW
     Min          66      66     24                  722      722     161
     Max          67      67     25                  724      724     162
     Sum         265     265     97                 2891     2891     645



     bravais-lattice index     =            2
     lattice parameter (alat)  =      10.4000  a.u.
     unit-cell volume          =     281.2160 (a.u.)^3
     number of atoms/cell      =            2
     number of atomic types    =            1
     number of electrons       =         8.00
     number of Kohn-Sham states=            4
     kinetic-energy cutoff     =      18.0000  Ry
     charge density cutoff     =      72.0000  Ry
     Exchange-correlation      = SLA  PW   PBE  PBE ( 1  4  3  4 0 0)

     celldm(1)=  10.400000  celldm(2)=   0.000000  celldm(3)=   0.000000
     celldm(4)=   0.000000  celldm(5)=   0.000000  celldm(6)=   0.000000

     crystal axes: (cart. coord. in units of alat)
               a(1) = (  -0.500000   0.000000   0.500000 )  
               a(2) = (   0.000000   0.500000   0.500000 )  
               a(3) = (  -0.500000   0.500000   0.000000 )  

     reciprocal axes: (cart. coord. in units 2 pi/alat)
               b(1) = ( -1.000000 -1.000000  1.000000 )  
               b(2) = (  1.000000  1.000000  1.000000 )  
               b(3) = ( -1.000000  1.000000 -1.000000 )  


     PseudoPot. # 1 for Si read from file:
     /home/max/quantum_espresso/qe-6.1/pseudo/si_pbe_v1.uspp.F.UPF.txt
     MD5 check sum: a056efeee980c13900f22a371efd63c1
     Pseudo is Ultrasoft + core correction, Zval =  4.0
     Generated by new atomic code, or converted to UPF format
     Using radial grid of  899 points,  6 beta functions with: 
                l(1) =   0
                l(2) =   0
                l(3) =   1
                l(4) =   1
                l(5) =   2
                l(6) =   2
     Q(r) pseudized with  8 coefficients,  rinner =    0.900   0.900   0.900
                                                       0.900   0.900

     atomic species   valence    mass     pseudopotential
        Si             4.00    28.08600     Si( 1.00)

     48 Sym. Ops., with inversion, found



   Cartesian axes

     site n.     atom                  positions (alat units)
         1           Si  tau(   1) = (   0.0000000   0.0000000   0.0000000  )
         2           Si  tau(   2) = (   0.2500000   0.2500000   0.2500000  )

     number of k points=   120

     Number of k-points >= 100: set verbosity='high' to print them.

     Dense  grid:     2891 G-vectors     FFT dimensions: (  20,  20,  20)

     Estimated max dynamical RAM per process >       0.33MB

     Estimated total allocated dynamical RAM >       1.33MB

     Check: negative/imaginary core charge=   -0.000006    0.000000

     The potential is recalculated from file :
     ./_ph0/silicon.10.40.save/charge-density.dat

     Starting wfc are    8 atomic wfcs

     Band Structure Calculation
     Davidson diagonalization with overlap

     ethr =  1.25E-10,  avg # of iterations = 11.7

     total cpu time spent up to now is        0.8 secs

     End of band structure calculation

     Number of k-points >= 100: set verbosity='high' to print the bands.

     highest occupied level (ev):     5.5100

     Writing output data file silicon.10.40.save

                                                                                

     bravais-lattice index     =            2
     lattice parameter (alat)  =      10.4000  a.u.
     unit-cell volume          =     281.2160 (a.u.)^3
     number of atoms/cell      =            2
     number of atomic types    =            1
     kinetic-energy cut-off    =      18.0000  Ry
     charge density cut-off    =      72.0000  Ry
     convergence threshold     =      1.0E-12
     beta                      =       0.7000
     number of iterations used =            4
     Exchange-correlation      = SLA  PW   PBE  PBE ( 1  4  3  4 0 0)


     celldm(1)=   10.40000  celldm(2)=    0.00000  celldm(3)=    0.00000
     celldm(4)=    0.00000  celldm(5)=    0.00000  celldm(6)=    0.00000

     crystal axes: (cart. coord. in units of alat)
               a(1) = ( -0.5000  0.0000  0.5000 )  
               a(2) = (  0.0000  0.5000  0.5000 )  
               a(3) = ( -0.5000  0.5000  0.0000 )  

     reciprocal axes: (cart. coord. in units 2 pi/alat)
               b(1) = ( -1.0000 -1.0000  1.0000 )  
               b(2) = (  1.0000  1.0000  1.0000 )  
               b(3) = ( -1.0000  1.0000 -1.0000 )  


     Atoms inside the unit cell: 

     Cartesian axes

     site n.  atom      mass           positions (alat units)
        1     Si  28.0860   tau(    1) = (    0.00000    0.00000    0.00000  )
        2     Si  28.0860   tau(    2) = (    0.25000    0.25000    0.25000  )

     Computing dynamical matrix for 
                    q = (  -0.2500000   0.2500000  -0.2500000 )

      6 Sym.Ops. (no q -> -q+G )


     G cutoff =  197.2602  (    722 G-vectors)     FFT grid: ( 20, 20, 20)
     number of k points=   120

     PseudoPot. # 1 for Si read from file:
     /home/max/quantum_espresso/qe-6.1/pseudo/si_pbe_v1.uspp.F.UPF.txt
     MD5 check sum: a056efeee980c13900f22a371efd63c1
     Pseudo is Ultrasoft + core correction, Zval =  4.0
     Generated by new atomic code, or converted to UPF format
     Using radial grid of  899 points,  6 beta functions with: 
                l(1) =   0
                l(2) =   0
                l(3) =   1
                l(4) =   1
                l(5) =   2
                l(6) =   2
     Q(r) pseudized with  8 coefficients,  rinner =    0.900   0.900   0.900
                                                       0.900   0.900

     Mode symmetry, C_3v (3m)   point group:


     Atomic displacements:
     There are   4 irreducible representations

     Representation     1      1 modes -A_1  L_1  To be done

     Representation     2      1 modes -A_1  L_1  To be done

     Representation     3      2 modes -E    L_3  To be done

     Representation     4      2 modes -E    L_3  To be done



     Alpha used in Ewald sum =   0.7000
     PHONON       :     4.60s CPU         4.77s WALL



     Representation #  1 mode #   1

     Self-consistent Calculation

      iter #   1 total cpu time :     5.0 secs   av.it.:   5.5
      thresh= 1.000E-02 alpha_mix =  0.700 |ddv_scf|^2 =  2.430E-03

      iter #   2 total cpu time :     5.2 secs   av.it.:   7.5
      thresh= 4.930E-03 alpha_mix =  0.700 |ddv_scf|^2 =  3.696E-02

      iter #   3 total cpu time :     5.4 secs   av.it.:   6.3
      thresh= 1.000E-02 alpha_mix =  0.700 |ddv_scf|^2 =  1.665E-06

      iter #   4 total cpu time :     5.7 secs   av.it.:   8.2
      thresh= 1.290E-04 alpha_mix =  0.700 |ddv_scf|^2 =  1.097E-07

      iter #   5 total cpu time :     6.0 secs   av.it.:   8.1
      thresh= 3.313E-05 alpha_mix =  0.700 |ddv_scf|^2 =  4.927E-09

      iter #   6 total cpu time :     6.2 secs   av.it.:   8.1
      thresh= 7.019E-06 alpha_mix =  0.700 |ddv_scf|^2 =  3.724E-09

      iter #   7 total cpu time :     6.4 secs   av.it.:   6.3
      thresh= 6.102E-06 alpha_mix =  0.700 |ddv_scf|^2 =  7.683E-10

      iter #   8 total cpu time :     6.7 secs   av.it.:   7.1
      thresh= 2.772E-06 alpha_mix =  0.700 |ddv_scf|^2 =  7.460E-12

      iter #   9 total cpu time :     6.9 secs   av.it.:   7.1
      thresh= 2.731E-07 alpha_mix =  0.700 |ddv_scf|^2 =  5.285E-13

     End of self-consistent calculation

     Convergence has been achieved 


     Representation #  2 mode #   2

     Self-consistent Calculation

      iter #   1 total cpu time :     7.1 secs   av.it.:   5.5
      thresh= 1.000E-02 alpha_mix =  0.700 |ddv_scf|^2 =  2.430E-03

      iter #   2 total cpu time :     7.4 secs   av.it.:   7.5
      thresh= 4.930E-03 alpha_mix =  0.700 |ddv_scf|^2 =  3.696E-02

      iter #   3 total cpu time :     7.6 secs   av.it.:   6.3
      thresh= 1.000E-02 alpha_mix =  0.700 |ddv_scf|^2 =  1.665E-06

      iter #   4 total cpu time :     7.9 secs   av.it.:   8.2
      thresh= 1.290E-04 alpha_mix =  0.700 |ddv_scf|^2 =  1.097E-07

      iter #   5 total cpu time :     8.1 secs   av.it.:   8.1
      thresh= 3.313E-05 alpha_mix =  0.700 |ddv_scf|^2 =  4.927E-09

      iter #   6 total cpu time :     8.4 secs   av.it.:   8.1
      thresh= 7.019E-06 alpha_mix =  0.700 |ddv_scf|^2 =  3.724E-09

      iter #   7 total cpu time :     8.6 secs   av.it.:   6.3
      thresh= 6.102E-06 alpha_mix =  0.700 |ddv_scf|^2 =  7.683E-10

      iter #   8 total cpu time :     8.8 secs   av.it.:   7.1
      thresh= 2.772E-06 alpha_mix =  0.700 |ddv_scf|^2 =  7.460E-12

      iter #   9 total cpu time :     9.1 secs   av.it.:   7.1
      thresh= 2.731E-07 alpha_mix =  0.700 |ddv_scf|^2 =  5.285E-13

     End of self-consistent calculation

     Convergence has been achieved 


     Representation #  3 modes #   3  4

     Self-consistent Calculation

      iter #   1 total cpu time :     9.5 secs   av.it.:   5.0
      thresh= 1.000E-02 alpha_mix =  0.700 |ddv_scf|^2 =  5.356E-07

      iter #   2 total cpu time :    10.1 secs   av.it.:   9.6
      thresh= 7.318E-05 alpha_mix =  0.700 |ddv_scf|^2 =  4.015E-08

      iter #   3 total cpu time :    10.6 secs   av.it.:   9.3
      thresh= 2.004E-05 alpha_mix =  0.700 |ddv_scf|^2 =  3.455E-09

      iter #   4 total cpu time :    11.2 secs   av.it.:   8.9
      thresh= 5.878E-06 alpha_mix =  0.700 |ddv_scf|^2 =  1.141E-11

      iter #   5 total cpu time :    11.7 secs   av.it.:   9.2
      thresh= 3.379E-07 alpha_mix =  0.700 |ddv_scf|^2 =  5.095E-13

     End of self-consistent calculation

     Convergence has been achieved 


     Representation #  4 modes #   5  6

     Self-consistent Calculation

      iter #   1 total cpu time :    12.2 secs   av.it.:   5.0
      thresh= 1.000E-02 alpha_mix =  0.700 |ddv_scf|^2 =  5.354E-07

      iter #   2 total cpu time :    12.7 secs   av.it.:   9.7
      thresh= 7.317E-05 alpha_mix =  0.700 |ddv_scf|^2 =  4.009E-08

      iter #   3 total cpu time :    13.3 secs   av.it.:   9.4
      thresh= 2.002E-05 alpha_mix =  0.700 |ddv_scf|^2 =  3.451E-09

      iter #   4 total cpu time :    13.9 secs   av.it.:   9.1
      thresh= 5.875E-06 alpha_mix =  0.700 |ddv_scf|^2 =  1.142E-11

      iter #   5 total cpu time :    14.4 secs   av.it.:   9.3
      thresh= 3.379E-07 alpha_mix =  0.700 |ddv_scf|^2 =  5.099E-13

     End of self-consistent calculation

     Convergence has been achieved 

     Number of q in the star =    8
     List of q in the star:
          1  -0.250000000   0.250000000  -0.250000000
          2   0.250000000  -0.250000000  -0.250000000
          3   0.250000000  -0.250000000   0.250000000
          4   0.250000000   0.250000000   0.250000000
          5  -0.250000000  -0.250000000  -0.250000000
          6  -0.250000000  -0.250000000   0.250000000
          7  -0.250000000   0.250000000   0.250000000
          8   0.250000000   0.250000000  -0.250000000

     Diagonalizing the dynamical matrix

     q = (   -0.250000000   0.250000000  -0.250000000 ) 

 **************************************************************************
     freq (    1) =       3.409737 [THz] =     113.736596 [cm-1]
     freq (    2) =       3.409737 [THz] =     113.736596 [cm-1]
     freq (    3) =       6.840630 [THz] =     228.178864 [cm-1]
     freq (    4) =      14.670331 [THz] =     489.349559 [cm-1]
     freq (    5) =      14.946878 [THz] =     498.574171 [cm-1]
     freq (    6) =      14.946878 [THz] =     498.574171 [cm-1]
 **************************************************************************

     Mode symmetry, C_3v (3m)   point group:

     freq (  1 -  2) =        113.7  [cm-1]   --> E    L_3           
     freq (  3 -  3) =        228.2  [cm-1]   --> A_1  L_1           
     freq (  4 -  4) =        489.3  [cm-1]   --> A_1  L_1           
     freq (  5 -  6) =        498.6  [cm-1]   --> E    L_3           

     Calculation of q =    0.5000000  -0.5000000   0.5000000

   Info: using nr1, nr2, nr3 values from input

   Info: using nr1, nr2, nr3 values from input

     Parallelization info
     --------------------
     sticks:   dense  smooth     PW     G-vecs:    dense   smooth      PW
     Min          66      66     27                  722      722     186
     Max          67      67     28                  724      724     189
     Sum         265     265    109                 2891     2891     749



     bravais-lattice index     =            2
     lattice parameter (alat)  =      10.4000  a.u.
     unit-cell volume          =     281.2160 (a.u.)^3
     number of atoms/cell      =            2
     number of atomic types    =            1
     number of electrons       =         8.00
     number of Kohn-Sham states=            4
     kinetic-energy cutoff     =      18.0000  Ry
     charge density cutoff     =      72.0000  Ry
     Exchange-correlation      = SLA  PW   PBE  PBE ( 1  4  3  4 0 0)

     celldm(1)=  10.400000  celldm(2)=   0.000000  celldm(3)=   0.000000
     celldm(4)=   0.000000  celldm(5)=   0.000000  celldm(6)=   0.000000

     crystal axes: (cart. coord. in units of alat)
               a(1) = (  -0.500000   0.000000   0.500000 )  
               a(2) = (   0.000000   0.500000   0.500000 )  
               a(3) = (  -0.500000   0.500000   0.000000 )  

     reciprocal axes: (cart. coord. in units 2 pi/alat)
               b(1) = ( -1.000000 -1.000000  1.000000 )  
               b(2) = (  1.000000  1.000000  1.000000 )  
               b(3) = ( -1.000000  1.000000 -1.000000 )  


     PseudoPot. # 1 for Si read from file:
     /home/max/quantum_espresso/qe-6.1/pseudo/si_pbe_v1.uspp.F.UPF.txt
     MD5 check sum: a056efeee980c13900f22a371efd63c1
     Pseudo is Ultrasoft + core correction, Zval =  4.0
     Generated by new atomic code, or converted to UPF format
     Using radial grid of  899 points,  6 beta functions with: 
                l(1) =   0
                l(2) =   0
                l(3) =   1
                l(4) =   1
                l(5) =   2
                l(6) =   2
     Q(r) pseudized with  8 coefficients,  rinner =    0.900   0.900   0.900
                                                       0.900   0.900

     atomic species   valence    mass     pseudopotential
        Si             4.00    28.08600     Si( 1.00)

     48 Sym. Ops., with inversion, found



   Cartesian axes

     site n.     atom                  positions (alat units)
         1           Si  tau(   1) = (   0.0000000   0.0000000   0.0000000  )
         2           Si  tau(   2) = (   0.2500000   0.2500000   0.2500000  )

     number of k points=    60
                       cart. coord. in units 2pi/alat
        k(    1) = (  -0.1250000   0.1250000   0.1250000), wk =   0.0468750
        k(    2) = (   0.3750000  -0.3750000   0.6250000), wk =   0.0000000
        k(    3) = (  -0.3750000   0.3750000  -0.1250000), wk =   0.0468750
        k(    4) = (   0.1250000  -0.1250000   0.3750000), wk =   0.0000000
        k(    5) = (   0.3750000  -0.3750000   0.6250000), wk =   0.0468750
        k(    6) = (   0.8750000  -0.8750000   1.1250000), wk =   0.0000000
        k(    7) = (   0.1250000  -0.1250000   0.3750000), wk =   0.0468750
        k(    8) = (   0.6250000  -0.6250000   0.8750000), wk =   0.0000000
        k(    9) = (  -0.1250000   0.6250000   0.1250000), wk =   0.0937500
        k(   10) = (   0.3750000   0.1250000   0.6250000), wk =   0.0000000
        k(   11) = (   0.6250000  -0.1250000   0.8750000), wk =   0.0937500
        k(   12) = (   1.1250000  -0.6250000   1.3750000), wk =   0.0000000
        k(   13) = (   0.3750000   0.1250000   0.6250000), wk =   0.0937500
        k(   14) = (   0.8750000  -0.3750000   1.1250000), wk =   0.0000000
        k(   15) = (  -0.1250000  -0.8750000   0.1250000), wk =   0.0937500
        k(   16) = (   0.3750000  -1.3750000   0.6250000), wk =   0.0000000
        k(   17) = (  -0.3750000   0.3750000   0.3750000), wk =   0.0468750
        k(   18) = (   0.1250000  -0.1250000   0.8750000), wk =   0.0000000
        k(   19) = (   0.3750000  -0.3750000   1.1250000), wk =   0.0468750
        k(   20) = (   0.8750000  -0.8750000   1.6250000), wk =   0.0000000
        k(   21) = (   0.1250000  -0.1250000   0.1250000), wk =   0.0156250
        k(   22) = (   0.6250000  -0.6250000   0.6250000), wk =   0.0000000
        k(   23) = (  -0.3750000  -0.3750000  -0.1250000), wk =   0.0937500
        k(   24) = (   0.1250000  -0.8750000   0.3750000), wk =   0.0000000
        k(   25) = (  -0.1250000  -0.3750000   0.3750000), wk =   0.0468750
        k(   26) = (   0.3750000  -0.8750000   0.8750000), wk =   0.0000000
        k(   27) = (   0.3750000   0.3750000   0.6250000), wk =   0.0937500
        k(   28) = (   0.8750000  -0.1250000   1.1250000), wk =   0.0000000
        k(   29) = (   0.6250000   0.3750000  -0.3750000), wk =   0.0468750
        k(   30) = (   1.1250000  -0.1250000   0.1250000), wk =   0.0000000
        k(   31) = (   0.1250000   0.1250000   0.3750000), wk =   0.0937500
        k(   32) = (   0.6250000  -0.3750000   0.8750000), wk =   0.0000000
        k(   33) = (   0.3750000   0.1250000  -0.1250000), wk =   0.0468750
        k(   34) = (   0.8750000  -0.3750000   0.3750000), wk =   0.0000000
        k(   35) = (  -0.1250000  -0.6250000  -0.1250000), wk =   0.0468750
        k(   36) = (   0.3750000  -1.1250000   0.3750000), wk =   0.0000000
        k(   37) = (   0.1250000  -0.6250000   0.1250000), wk =   0.0468750
        k(   38) = (   0.6250000  -1.1250000   0.6250000), wk =   0.0000000
        k(   39) = (   0.6250000   0.1250000   0.8750000), wk =   0.0937500
        k(   40) = (   1.1250000  -0.3750000   1.3750000), wk =   0.0000000
        k(   41) = (  -0.8750000   0.1250000   0.6250000), wk =   0.0937500
        k(   42) = (  -0.3750000  -0.3750000   1.1250000), wk =   0.0000000
        k(   43) = (   0.8750000   0.1250000  -0.6250000), wk =   0.0937500
        k(   44) = (   1.3750000  -0.3750000  -0.1250000), wk =   0.0000000
        k(   45) = (   0.3750000  -0.1250000   0.6250000), wk =   0.0937500
        k(   46) = (   0.8750000  -0.6250000   1.1250000), wk =   0.0000000
        k(   47) = (  -0.6250000  -0.1250000   0.3750000), wk =   0.0937500
        k(   48) = (  -0.1250000  -0.6250000   0.8750000), wk =   0.0000000
        k(   49) = (   0.6250000  -0.1250000  -0.3750000), wk =   0.0937500
        k(   50) = (   1.1250000  -0.6250000   0.1250000), wk =   0.0000000
        k(   51) = (  -0.1250000   0.8750000  -0.1250000), wk =   0.0468750
        k(   52) = (   0.3750000   0.3750000   0.3750000), wk =   0.0000000
        k(   53) = (   0.1250000   0.8750000   0.1250000), wk =   0.0468750
        k(   54) = (   0.6250000   0.3750000   0.6250000), wk =   0.0000000
        k(   55) = (   0.3750000  -0.3750000   0.3750000), wk =   0.0156250
        k(   56) = (   0.8750000  -0.8750000   0.8750000), wk =   0.0000000
        k(   57) = (   0.3750000   0.3750000   1.1250000), wk =   0.0937500
        k(   58) = (   0.8750000  -0.1250000   1.6250000), wk =   0.0000000
        k(   59) = (   1.1250000   0.3750000  -0.3750000), wk =   0.0468750
        k(   60) = (   1.6250000  -0.1250000   0.1250000), wk =   0.0000000

     Dense  grid:     2891 G-vectors     FFT dimensions: (  20,  20,  20)

     Estimated max dynamical RAM per process >       0.33MB

     Estimated total allocated dynamical RAM >       1.33MB

     Check: negative/imaginary core charge=   -0.000006    0.000000

     The potential is recalculated from file :
     ./_ph0/silicon.10.40.save/charge-density.dat

     Starting wfc are    8 atomic wfcs

     Band Structure Calculation
     Davidson diagonalization with overlap

     ethr =  1.25E-10,  avg # of iterations = 11.7

     total cpu time spent up to now is        1.3 secs

     End of band structure calculation

          k =-0.1250 0.1250 0.1250 (   353 PWs)   bands (ev):

    -5.7007   4.1989   5.5100   5.5100

          k = 0.3750-0.3750 0.6250 (   364 PWs)   bands (ev):

    -3.5848  -0.7915   3.5716   4.2791

          k =-0.3750 0.3750-0.1250 (   362 PWs)   bands (ev):

    -4.6946   1.2393   3.5619   5.0332

          k = 0.1250-0.1250 0.3750 (   358 PWs)   bands (ev):

    -5.1827   2.5896   4.5236   4.5762

          k = 0.3750-0.3750 0.6250 (   364 PWs)   bands (ev):

    -3.5848  -0.7915   3.5716   4.2791

          k = 0.8750-0.8750 1.1250 (   353 PWs)   bands (ev):

    -5.7007   4.1989   5.5100   5.5100

          k = 0.1250-0.1250 0.3750 (   358 PWs)   bands (ev):

    -5.1827   2.5896   4.5236   4.5762

          k = 0.6250-0.6250 0.8750 (   362 PWs)   bands (ev):

    -4.6946   1.2393   3.5619   5.0332

          k =-0.1250 0.6250 0.1250 (   357 PWs)   bands (ev):

    -4.1711   0.8841   3.2251   3.6651

          k = 0.3750 0.1250 0.6250 (   365 PWs)   bands (ev):

    -3.7667   0.0396   2.5934   3.9362

          k = 0.6250-0.1250 0.8750 (   368 PWs)   bands (ev):

    -2.5696  -1.0484   1.9095   2.9590

          k = 1.1250-0.6250 1.3750 (   362 PWs)   bands (ev):

    -4.6946   1.2393   3.5619   5.0332

          k = 0.3750 0.1250 0.6250 (   365 PWs)   bands (ev):

    -3.7667   0.0396   2.5934   3.9362

          k = 0.8750-0.3750 1.1250 (   357 PWs)   bands (ev):

    -4.1711   0.8841   3.2251   3.6651

          k =-0.1250-0.8750 0.1250 (   364 PWs)   bands (ev):

    -2.7280  -0.9555   2.5023   3.2060

          k = 0.3750-1.3750 0.6250 (   364 PWs)   bands (ev):

    -3.5848  -0.7915   3.5716   4.2791

          k =-0.3750 0.3750 0.3750 (   359 PWs)   bands (ev):

    -4.2725  -0.0165   4.7324   4.7324

          k = 0.1250-0.1250 0.8750 (   364 PWs)   bands (ev):

    -2.7280  -0.9555   2.5023   3.2060

          k = 0.3750-0.3750 1.1250 (   369 PWs)   bands (ev):

    -3.0980  -0.7329   1.9582   3.9695

          k = 0.8750-0.8750 1.6250 (   357 PWs)   bands (ev):

    -4.1711   0.8841   3.2251   3.6651

          k = 0.1250-0.1250 0.1250 (   353 PWs)   bands (ev):

    -5.7007   4.1989   5.5100   5.5100

          k = 0.6250-0.6250 0.6250 (   359 PWs)   bands (ev):

    -4.2725  -0.0165   4.7324   4.7324

          k =-0.3750-0.3750-0.1250 (   362 PWs)   bands (ev):

    -4.6946   1.2393   3.5619   5.0332

          k = 0.1250-0.8750 0.3750 (   368 PWs)   bands (ev):

    -2.5696  -1.0484   1.9095   2.9590

          k =-0.1250-0.3750 0.3750 (   362 PWs)   bands (ev):

    -4.6946   1.2393   3.5619   5.0332

          k = 0.3750-0.8750 0.8750 (   357 PWs)   bands (ev):

    -4.1711   0.8841   3.2251   3.6651

          k = 0.3750 0.3750 0.6250 (   364 PWs)   bands (ev):

    -3.5848  -0.7915   3.5716   4.2791

          k = 0.8750-0.1250 1.1250 (   364 PWs)   bands (ev):

    -2.7280  -0.9555   2.5023   3.2060

          k = 0.6250 0.3750-0.3750 (   364 PWs)   bands (ev):

    -3.5848  -0.7915   3.5716   4.2791

          k = 1.1250-0.1250 0.1250 (   364 PWs)   bands (ev):

    -2.7280  -0.9555   2.5023   3.2060

          k = 0.1250 0.1250 0.3750 (   358 PWs)   bands (ev):

    -5.1827   2.5896   4.5236   4.5762

          k = 0.6250-0.3750 0.8750 (   365 PWs)   bands (ev):

    -3.7667   0.0396   2.5934   3.9362

          k = 0.3750 0.1250-0.1250 (   358 PWs)   bands (ev):

    -5.1827   2.5896   4.5236   4.5762

          k = 0.8750-0.3750 0.3750 (   369 PWs)   bands (ev):

    -3.0980  -0.7329   1.9582   3.9695

          k =-0.1250-0.6250-0.1250 (   357 PWs)   bands (ev):

    -4.1711   0.8841   3.2251   3.6651

          k = 0.3750-1.1250 0.3750 (   369 PWs)   bands (ev):

    -3.0980  -0.7329   1.9582   3.9695

          k = 0.1250-0.6250 0.1250 (   357 PWs)   bands (ev):

    -4.1711   0.8841   3.2251   3.6651

          k = 0.6250-1.1250 0.6250 (   362 PWs)   bands (ev):

    -4.6946   1.2393   3.5619   5.0332

          k = 0.6250 0.1250 0.8750 (   368 PWs)   bands (ev):

    -2.5696  -1.0484   1.9095   2.9590

          k = 1.1250-0.3750 1.3750 (   365 PWs)   bands (ev):

    -3.7667   0.0396   2.5934   3.9362

          k =-0.8750 0.1250 0.6250 (   368 PWs)   bands (ev):

    -2.5696  -1.0484   1.9095   2.9590

          k =-0.3750-0.3750 1.1250 (   369 PWs)   bands (ev):

    -3.0980  -0.7329   1.9582   3.9695

          k = 0.8750 0.1250-0.6250 (   368 PWs)   bands (ev):

    -2.5696  -1.0484   1.9095   2.9590

          k = 1.3750-0.3750-0.1250 (   365 PWs)   bands (ev):

    -3.7667   0.0396   2.5934   3.9362

          k = 0.3750-0.1250 0.6250 (   365 PWs)   bands (ev):

    -3.7667   0.0396   2.5934   3.9362

          k = 0.8750-0.6250 1.1250 (   358 PWs)   bands (ev):

    -5.1827   2.5896   4.5236   4.5762

          k =-0.6250-0.1250 0.3750 (   365 PWs)   bands (ev):

    -3.7667   0.0396   2.5934   3.9362

          k =-0.1250-0.6250 0.8750 (   368 PWs)   bands (ev):

    -2.5696  -1.0484   1.9095   2.9590

          k = 0.6250-0.1250-0.3750 (   365 PWs)   bands (ev):

    -3.7667   0.0396   2.5934   3.9362

          k = 1.1250-0.6250 0.1250 (   368 PWs)   bands (ev):

    -2.5696  -1.0484   1.9095   2.9590

          k =-0.1250 0.8750-0.1250 (   364 PWs)   bands (ev):

    -2.7280  -0.9555   2.5023   3.2060

          k = 0.3750 0.3750 0.3750 (   359 PWs)   bands (ev):

    -4.2725  -0.0165   4.7324   4.7324

          k = 0.1250 0.8750 0.1250 (   364 PWs)   bands (ev):

    -2.7280  -0.9555   2.5023   3.2060

          k = 0.6250 0.3750 0.6250 (   364 PWs)   bands (ev):

    -3.5848  -0.7915   3.5716   4.2791

          k = 0.3750-0.3750 0.3750 (   359 PWs)   bands (ev):

    -4.2725  -0.0165   4.7324   4.7324

          k = 0.8750-0.8750 0.8750 (   353 PWs)   bands (ev):

    -5.7007   4.1989   5.5100   5.5100

          k = 0.3750 0.3750 1.1250 (   369 PWs)   bands (ev):

    -3.0980  -0.7329   1.9582   3.9695

          k = 0.8750-0.1250 1.6250 (   368 PWs)   bands (ev):

    -2.5696  -1.0484   1.9095   2.9590

          k = 1.1250 0.3750-0.3750 (   369 PWs)   bands (ev):

    -3.0980  -0.7329   1.9582   3.9695

          k = 1.6250-0.1250 0.1250 (   358 PWs)   bands (ev):

    -5.1827   2.5896   4.5236   4.5762

     highest occupied level (ev):     5.5100

     Writing output data file silicon.10.40.save

                                                                                

     bravais-lattice index     =            2
     lattice parameter (alat)  =      10.4000  a.u.
     unit-cell volume          =     281.2160 (a.u.)^3
     number of atoms/cell      =            2
     number of atomic types    =            1
     kinetic-energy cut-off    =      18.0000  Ry
     charge density cut-off    =      72.0000  Ry
     convergence threshold     =      1.0E-12
     beta                      =       0.7000
     number of iterations used =            4
     Exchange-correlation      = SLA  PW   PBE  PBE ( 1  4  3  4 0 0)


     celldm(1)=   10.40000  celldm(2)=    0.00000  celldm(3)=    0.00000
     celldm(4)=    0.00000  celldm(5)=    0.00000  celldm(6)=    0.00000

     crystal axes: (cart. coord. in units of alat)
               a(1) = ( -0.5000  0.0000  0.5000 )  
               a(2) = (  0.0000  0.5000  0.5000 )  
               a(3) = ( -0.5000  0.5000  0.0000 )  

     reciprocal axes: (cart. coord. in units 2 pi/alat)
               b(1) = ( -1.0000 -1.0000  1.0000 )  
               b(2) = (  1.0000  1.0000  1.0000 )  
               b(3) = ( -1.0000  1.0000 -1.0000 )  


     Atoms inside the unit cell: 

     Cartesian axes

     site n.  atom      mass           positions (alat units)
        1     Si  28.0860   tau(    1) = (    0.00000    0.00000    0.00000  )
        2     Si  28.0860   tau(    2) = (    0.25000    0.25000    0.25000  )

     Computing dynamical matrix for 
                    q = (   0.5000000  -0.5000000   0.5000000 )

     13 Sym.Ops. (with q -> -q+G )


     G cutoff =  197.2602  (    722 G-vectors)     FFT grid: ( 20, 20, 20)
     number of k points=    60

     PseudoPot. # 1 for Si read from file:
     /home/max/quantum_espresso/qe-6.1/pseudo/si_pbe_v1.uspp.F.UPF.txt
     MD5 check sum: a056efeee980c13900f22a371efd63c1
     Pseudo is Ultrasoft + core correction, Zval =  4.0
     Generated by new atomic code, or converted to UPF format
     Using radial grid of  899 points,  6 beta functions with: 
                l(1) =   0
                l(2) =   0
                l(3) =   1
                l(4) =   1
                l(5) =   2
                l(6) =   2
     Q(r) pseudized with  8 coefficients,  rinner =    0.900   0.900   0.900
                                                       0.900   0.900


     Atomic displacements:
     There are   4 irreducible representations

     Representation     1      1 modes -  To be done

     Representation     2      1 modes -  To be done

     Representation     3      2 modes -  To be done

     Representation     4      2 modes -  To be done



     Alpha used in Ewald sum =   0.7000
     PHONON       :    14.58s CPU        15.18s WALL



     Representation #  1 mode #   1

     Self-consistent Calculation

      iter #   1 total cpu time :    15.3 secs   av.it.:   4.8
      thresh= 1.000E-02 alpha_mix =  0.700 |ddv_scf|^2 =  2.433E-05

      iter #   2 total cpu time :    15.4 secs   av.it.:   8.4
      thresh= 4.932E-04 alpha_mix =  0.700 |ddv_scf|^2 =  2.221E-05

      iter #   3 total cpu time :    15.6 secs   av.it.:   7.5
      thresh= 4.712E-04 alpha_mix =  0.700 |ddv_scf|^2 =  3.808E-08

      iter #   4 total cpu time :    15.7 secs   av.it.:   7.6
      thresh= 1.951E-05 alpha_mix =  0.700 |ddv_scf|^2 =  1.919E-10

      iter #   5 total cpu time :    15.8 secs   av.it.:   7.5
      thresh= 1.385E-06 alpha_mix =  0.700 |ddv_scf|^2 =  4.200E-12

      iter #   6 total cpu time :    16.0 secs   av.it.:   7.4
      thresh= 2.049E-07 alpha_mix =  0.700 |ddv_scf|^2 =  6.963E-14

     End of self-consistent calculation

     Convergence has been achieved 


     Representation #  2 mode #   2

     Self-consistent Calculation

      iter #   1 total cpu time :    16.1 secs   av.it.:   5.6
      thresh= 1.000E-02 alpha_mix =  0.700 |ddv_scf|^2 =  3.456E-04

      iter #   2 total cpu time :    16.3 secs   av.it.:   8.3
      thresh= 1.859E-03 alpha_mix =  0.700 |ddv_scf|^2 =  1.066E-03

      iter #   3 total cpu time :    16.4 secs   av.it.:   7.1
      thresh= 3.265E-03 alpha_mix =  0.700 |ddv_scf|^2 =  1.619E-07

      iter #   4 total cpu time :    16.5 secs   av.it.:   8.1
      thresh= 4.023E-05 alpha_mix =  0.700 |ddv_scf|^2 =  1.093E-08

      iter #   5 total cpu time :    16.7 secs   av.it.:   8.4
      thresh= 1.046E-05 alpha_mix =  0.700 |ddv_scf|^2 =  2.667E-10

      iter #   6 total cpu time :    16.8 secs   av.it.:   8.2
      thresh= 1.633E-06 alpha_mix =  0.700 |ddv_scf|^2 =  4.785E-12

      iter #   7 total cpu time :    16.9 secs   av.it.:   7.4
      thresh= 2.188E-07 alpha_mix =  0.700 |ddv_scf|^2 =  6.215E-14

     End of self-consistent calculation

     Convergence has been achieved 


     Representation #  3 modes #   3  4

     Self-consistent Calculation

      iter #   1 total cpu time :    17.2 secs   av.it.:   4.7
      thresh= 1.000E-02 alpha_mix =  0.700 |ddv_scf|^2 =  3.413E-07

      iter #   2 total cpu time :    17.5 secs   av.it.:   9.0
      thresh= 5.842E-05 alpha_mix =  0.700 |ddv_scf|^2 =  2.942E-08

      iter #   3 total cpu time :    17.7 secs   av.it.:   8.3
      thresh= 1.715E-05 alpha_mix =  0.700 |ddv_scf|^2 =  5.126E-10

      iter #   4 total cpu time :    18.0 secs   av.it.:   8.9
      thresh= 2.264E-06 alpha_mix =  0.700 |ddv_scf|^2 =  6.446E-12

      iter #   5 total cpu time :    18.3 secs   av.it.:   8.7
      thresh= 2.539E-07 alpha_mix =  0.700 |ddv_scf|^2 =  3.582E-14

     End of self-consistent calculation

     Convergence has been achieved 


     Representation #  4 modes #   5  6

     Self-consistent Calculation

      iter #   1 total cpu time :    18.6 secs   av.it.:   4.9
      thresh= 1.000E-02 alpha_mix =  0.700 |ddv_scf|^2 =  9.415E-07

      iter #   2 total cpu time :    18.9 secs   av.it.:   9.5
      thresh= 9.703E-05 alpha_mix =  0.700 |ddv_scf|^2 =  7.487E-08

      iter #   3 total cpu time :    19.2 secs   av.it.:   9.3
      thresh= 2.736E-05 alpha_mix =  0.700 |ddv_scf|^2 =  4.468E-09

      iter #   4 total cpu time :    19.4 secs   av.it.:   8.5
      thresh= 6.684E-06 alpha_mix =  0.700 |ddv_scf|^2 =  6.522E-12

      iter #   5 total cpu time :    19.7 secs   av.it.:   8.8
      thresh= 2.554E-07 alpha_mix =  0.700 |ddv_scf|^2 =  2.547E-14

     End of self-consistent calculation

     Convergence has been achieved 

     Number of q in the star =    4
     List of q in the star:
          1   0.500000000  -0.500000000   0.500000000
          2   0.500000000   0.500000000   0.500000000
          3  -0.500000000   0.500000000   0.500000000
          4   0.500000000   0.500000000  -0.500000000

     Diagonalizing the dynamical matrix

     q = (    0.500000000  -0.500000000   0.500000000 ) 

 **************************************************************************
     freq (    1) =       5.099668 [THz] =     170.106615 [cm-1]
     freq (    2) =       5.099668 [THz] =     170.106615 [cm-1]
     freq (    3) =      11.938359 [THz] =     398.220804 [cm-1]
     freq (    4) =      12.178831 [THz] =     406.242077 [cm-1]
     freq (    5) =      14.714071 [THz] =     490.808563 [cm-1]
     freq (    6) =      14.714071 [THz] =     490.808563 [cm-1]
 **************************************************************************

     Calculation of q =    0.0000000   0.5000000   0.0000000

   Info: using nr1, nr2, nr3 values from input

   Info: using nr1, nr2, nr3 values from input

     Parallelization info
     --------------------
     sticks:   dense  smooth     PW     G-vecs:    dense   smooth      PW
     Min          66      66     27                  722      722     181
     Max          67      67     28                  724      724     182
     Sum         265     265    109                 2891     2891     725



     bravais-lattice index     =            2
     lattice parameter (alat)  =      10.4000  a.u.
     unit-cell volume          =     281.2160 (a.u.)^3
     number of atoms/cell      =            2
     number of atomic types    =            1
     number of electrons       =         8.00
     number of Kohn-Sham states=            4
     kinetic-energy cutoff     =      18.0000  Ry
     charge density cutoff     =      72.0000  Ry
     Exchange-correlation      = SLA  PW   PBE  PBE ( 1  4  3  4 0 0)

     celldm(1)=  10.400000  celldm(2)=   0.000000  celldm(3)=   0.000000
     celldm(4)=   0.000000  celldm(5)=   0.000000  celldm(6)=   0.000000

     crystal axes: (cart. coord. in units of alat)
               a(1) = (  -0.500000   0.000000   0.500000 )  
               a(2) = (   0.000000   0.500000   0.500000 )  
               a(3) = (  -0.500000   0.500000   0.000000 )  

     reciprocal axes: (cart. coord. in units 2 pi/alat)
               b(1) = ( -1.000000 -1.000000  1.000000 )  
               b(2) = (  1.000000  1.000000  1.000000 )  
               b(3) = ( -1.000000  1.000000 -1.000000 )  


     PseudoPot. # 1 for Si read from file:
     /home/max/quantum_espresso/qe-6.1/pseudo/si_pbe_v1.uspp.F.UPF.txt
     MD5 check sum: a056efeee980c13900f22a371efd63c1
     Pseudo is Ultrasoft + core correction, Zval =  4.0
     Generated by new atomic code, or converted to UPF format
     Using radial grid of  899 points,  6 beta functions with: 
                l(1) =   0
                l(2) =   0
                l(3) =   1
                l(4) =   1
                l(5) =   2
                l(6) =   2
     Q(r) pseudized with  8 coefficients,  rinner =    0.900   0.900   0.900
                                                       0.900   0.900

     atomic species   valence    mass     pseudopotential
        Si             4.00    28.08600     Si( 1.00)

     48 Sym. Ops., with inversion, found



   Cartesian axes

     site n.     atom                  positions (alat units)
         1           Si  tau(   1) = (   0.0000000   0.0000000   0.0000000  )
         2           Si  tau(   2) = (   0.2500000   0.2500000   0.2500000  )

     number of k points=    80
                       cart. coord. in units 2pi/alat
        k(    1) = (  -0.1250000   0.1250000   0.1250000), wk =   0.0312500
        k(    2) = (  -0.1250000   0.6250000   0.1250000), wk =   0.0000000
        k(    3) = (  -0.3750000   0.3750000  -0.1250000), wk =   0.0625000
        k(    4) = (  -0.3750000   0.8750000  -0.1250000), wk =   0.0000000
        k(    5) = (   0.3750000  -0.3750000   0.6250000), wk =   0.0625000
        k(    6) = (   0.3750000   0.1250000   0.6250000), wk =   0.0000000
        k(    7) = (   0.1250000  -0.1250000   0.3750000), wk =   0.0625000
        k(    8) = (   0.1250000   0.3750000   0.3750000), wk =   0.0000000
        k(    9) = (  -0.1250000   0.6250000   0.1250000), wk =   0.0312500
        k(   10) = (  -0.1250000   1.1250000   0.1250000), wk =   0.0000000
        k(   11) = (   0.6250000  -0.1250000   0.8750000), wk =   0.0625000
        k(   12) = (   0.6250000   0.3750000   0.8750000), wk =   0.0000000
        k(   13) = (   0.3750000   0.1250000   0.6250000), wk =   0.0625000
        k(   14) = (   0.3750000   0.6250000   0.6250000), wk =   0.0000000
        k(   15) = (  -0.1250000  -0.8750000   0.1250000), wk =   0.0312500
        k(   16) = (  -0.1250000  -0.3750000   0.1250000), wk =   0.0000000
        k(   17) = (  -0.3750000   0.3750000   0.3750000), wk =   0.0312500
        k(   18) = (  -0.3750000   0.8750000   0.3750000), wk =   0.0000000
        k(   19) = (   0.3750000  -0.3750000   1.1250000), wk =   0.0625000
        k(   20) = (   0.3750000   0.1250000   1.1250000), wk =   0.0000000
        k(   21) = (  -0.1250000  -0.1250000   0.1250000), wk =   0.0312500
        k(   22) = (  -0.1250000   0.3750000   0.1250000), wk =   0.0000000
        k(   23) = (   0.1250000  -0.3750000   0.3750000), wk =   0.0625000
        k(   24) = (   0.1250000   0.1250000   0.3750000), wk =   0.0000000
        k(   25) = (   0.3750000  -0.1250000   0.3750000), wk =   0.0312500
        k(   26) = (   0.3750000   0.3750000   0.3750000), wk =   0.0000000
        k(   27) = (   0.3750000   0.1250000   0.3750000), wk =   0.0312500
        k(   28) = (   0.3750000   0.6250000   0.3750000), wk =   0.0000000
        k(   29) = (  -0.6250000   0.3750000  -0.3750000), wk =   0.0625000
        k(   30) = (  -0.6250000   0.8750000  -0.3750000), wk =   0.0000000
        k(   31) = (  -0.3750000   0.6250000  -0.3750000), wk =   0.0312500
        k(   32) = (  -0.3750000   1.1250000  -0.3750000), wk =   0.0000000
        k(   33) = (  -0.3750000  -0.6250000  -0.3750000), wk =   0.0312500
        k(   34) = (  -0.3750000  -0.1250000  -0.3750000), wk =   0.0000000
        k(   35) = (  -0.3750000   0.1250000  -0.1250000), wk =   0.0625000
        k(   36) = (  -0.3750000   0.6250000  -0.1250000), wk =   0.0000000
        k(   37) = (  -0.1250000   0.3750000  -0.1250000), wk =   0.0312500
        k(   38) = (  -0.1250000   0.8750000  -0.1250000), wk =   0.0000000
        k(   39) = (  -0.1250000  -0.3750000  -0.1250000), wk =   0.0312500
        k(   40) = (  -0.1250000   0.1250000  -0.1250000), wk =   0.0000000
        k(   41) = (  -0.1250000  -0.6250000   0.1250000), wk =   0.0312500
        k(   42) = (  -0.1250000  -0.1250000   0.1250000), wk =   0.0000000
        k(   43) = (   0.6250000  -0.1250000  -0.1250000), wk =   0.0625000
        k(   44) = (   0.6250000   0.3750000  -0.1250000), wk =   0.0000000
        k(   45) = (   0.6250000   0.1250000   0.1250000), wk =   0.0625000
        k(   46) = (   0.6250000   0.6250000   0.1250000), wk =   0.0000000
        k(   47) = (  -0.8750000   0.1250000  -0.6250000), wk =   0.0625000
        k(   48) = (  -0.8750000   0.6250000  -0.6250000), wk =   0.0000000
        k(   49) = (  -0.1250000   0.6250000  -0.8750000), wk =   0.0625000
        k(   50) = (  -0.1250000   1.1250000  -0.8750000), wk =   0.0000000
        k(   51) = (  -0.1250000   0.8750000  -0.6250000), wk =   0.0625000
        k(   52) = (  -0.1250000   1.3750000  -0.6250000), wk =   0.0000000
        k(   53) = (  -0.1250000  -0.8750000  -0.6250000), wk =   0.0625000
        k(   54) = (  -0.1250000  -0.3750000  -0.6250000), wk =   0.0000000
        k(   55) = (   0.8750000  -0.6250000   0.1250000), wk =   0.0625000
        k(   56) = (   0.8750000  -0.1250000   0.1250000), wk =   0.0000000
        k(   57) = (  -0.6250000  -0.1250000  -0.3750000), wk =   0.0625000
        k(   58) = (  -0.6250000   0.3750000  -0.3750000), wk =   0.0000000
        k(   59) = (   0.1250000   0.3750000  -0.6250000), wk =   0.0625000
        k(   60) = (   0.1250000   0.8750000  -0.6250000), wk =   0.0000000
        k(   61) = (   0.1250000   0.6250000  -0.3750000), wk =   0.0625000
        k(   62) = (   0.1250000   1.1250000  -0.3750000), wk =   0.0000000
        k(   63) = (   0.1250000  -0.6250000  -0.3750000), wk =   0.0625000
        k(   64) = (   0.1250000  -0.1250000  -0.3750000), wk =   0.0000000
        k(   65) = (   0.6250000  -0.3750000  -0.1250000), wk =   0.0625000
        k(   66) = (   0.6250000   0.1250000  -0.1250000), wk =   0.0000000
        k(   67) = (  -0.1250000   0.8750000   0.1250000), wk =   0.0312500
        k(   68) = (  -0.1250000   1.3750000   0.1250000), wk =   0.0000000
        k(   69) = (  -0.8750000  -0.1250000  -0.1250000), wk =   0.0625000
        k(   70) = (  -0.8750000   0.3750000  -0.1250000), wk =   0.0000000
        k(   71) = (  -0.8750000   0.1250000   0.1250000), wk =   0.0625000
        k(   72) = (  -0.8750000   0.6250000   0.1250000), wk =   0.0000000
        k(   73) = (  -0.3750000  -0.3750000   0.3750000), wk =   0.0312500
        k(   74) = (  -0.3750000   0.1250000   0.3750000), wk =   0.0000000
        k(   75) = (  -1.1250000   0.3750000  -0.3750000), wk =   0.0625000
        k(   76) = (  -1.1250000   0.8750000  -0.3750000), wk =   0.0000000
        k(   77) = (  -0.3750000   1.1250000  -0.3750000), wk =   0.0312500
        k(   78) = (  -0.3750000   1.6250000  -0.3750000), wk =   0.0000000
        k(   79) = (  -0.3750000  -1.1250000  -0.3750000), wk =   0.0312500
        k(   80) = (  -0.3750000  -0.6250000  -0.3750000), wk =   0.0000000

     Dense  grid:     2891 G-vectors     FFT dimensions: (  20,  20,  20)

     Estimated max dynamical RAM per process >       0.33MB

     Estimated total allocated dynamical RAM >       1.33MB

     Check: negative/imaginary core charge=   -0.000006    0.000000

     The potential is recalculated from file :
     ./_ph0/silicon.10.40.save/charge-density.dat

     Starting wfc are    8 atomic wfcs

     Band Structure Calculation
     Davidson diagonalization with overlap

     ethr =  1.25E-10,  avg # of iterations = 11.7

     total cpu time spent up to now is        1.9 secs

     End of band structure calculation

          k =-0.1250 0.1250 0.1250 (   353 PWs)   bands (ev):

    -5.7007   4.1989   5.5100   5.5100

          k =-0.1250 0.6250 0.1250 (   357 PWs)   bands (ev):

    -4.1711   0.8841   3.2251   3.6651

          k =-0.3750 0.3750-0.1250 (   362 PWs)   bands (ev):

    -4.6946   1.2393   3.5619   5.0332

          k =-0.3750 0.8750-0.1250 (   368 PWs)   bands (ev):

    -2.5696  -1.0484   1.9095   2.9590

          k = 0.3750-0.3750 0.6250 (   364 PWs)   bands (ev):

    -3.5848  -0.7915   3.5716   4.2791

          k = 0.3750 0.1250 0.6250 (   365 PWs)   bands (ev):

    -3.7667   0.0396   2.5934   3.9362

          k = 0.1250-0.1250 0.3750 (   358 PWs)   bands (ev):

    -5.1827   2.5896   4.5236   4.5762

          k = 0.1250 0.3750 0.3750 (   362 PWs)   bands (ev):

    -4.6946   1.2393   3.5619   5.0332

          k =-0.1250 0.6250 0.1250 (   357 PWs)   bands (ev):

    -4.1711   0.8841   3.2251   3.6651

          k =-0.1250 1.1250 0.1250 (   364 PWs)   bands (ev):

    -2.7280  -0.9555   2.5023   3.2060

          k = 0.6250-0.1250 0.8750 (   368 PWs)   bands (ev):

    -2.5696  -1.0484   1.9095   2.9590

          k = 0.6250 0.3750 0.8750 (   365 PWs)   bands (ev):

    -3.7667   0.0396   2.5934   3.9362

          k = 0.3750 0.1250 0.6250 (   365 PWs)   bands (ev):

    -3.7667   0.0396   2.5934   3.9362

          k = 0.3750 0.6250 0.6250 (   364 PWs)   bands (ev):

    -3.5848  -0.7915   3.5716   4.2791

          k =-0.1250-0.8750 0.1250 (   364 PWs)   bands (ev):

    -2.7280  -0.9555   2.5023   3.2060

          k =-0.1250-0.3750 0.1250 (   358 PWs)   bands (ev):

    -5.1827   2.5896   4.5236   4.5762

          k =-0.3750 0.3750 0.3750 (   359 PWs)   bands (ev):

    -4.2725  -0.0165   4.7324   4.7324

          k =-0.3750 0.8750 0.3750 (   369 PWs)   bands (ev):

    -3.0980  -0.7329   1.9582   3.9695

          k = 0.3750-0.3750 1.1250 (   369 PWs)   bands (ev):

    -3.0980  -0.7329   1.9582   3.9695

          k = 0.3750 0.1250 1.1250 (   368 PWs)   bands (ev):

    -2.5696  -1.0484   1.9095   2.9590

          k =-0.1250-0.1250 0.1250 (   353 PWs)   bands (ev):

    -5.7007   4.1989   5.5100   5.5100

          k =-0.1250 0.3750 0.1250 (   358 PWs)   bands (ev):

    -5.1827   2.5896   4.5236   4.5762

          k = 0.1250-0.3750 0.3750 (   362 PWs)   bands (ev):

    -4.6946   1.2393   3.5619   5.0332

          k = 0.1250 0.1250 0.3750 (   358 PWs)   bands (ev):

    -5.1827   2.5896   4.5236   4.5762

          k = 0.3750-0.1250 0.3750 (   362 PWs)   bands (ev):

    -4.6946   1.2393   3.5619   5.0332

          k = 0.3750 0.3750 0.3750 (   359 PWs)   bands (ev):

    -4.2725  -0.0165   4.7324   4.7324

          k = 0.3750 0.1250 0.3750 (   362 PWs)   bands (ev):

    -4.6946   1.2393   3.5619   5.0332

          k = 0.3750 0.6250 0.3750 (   364 PWs)   bands (ev):

    -3.5848  -0.7915   3.5716   4.2791

          k =-0.6250 0.3750-0.3750 (   364 PWs)   bands (ev):

    -3.5848  -0.7915   3.5716   4.2791

          k =-0.6250 0.8750-0.3750 (   365 PWs)   bands (ev):

    -3.7667   0.0396   2.5934   3.9362

          k =-0.3750 0.6250-0.3750 (   364 PWs)   bands (ev):

    -3.5848  -0.7915   3.5716   4.2791

          k =-0.3750 1.1250-0.3750 (   369 PWs)   bands (ev):

    -3.0980  -0.7329   1.9582   3.9695

          k =-0.3750-0.6250-0.3750 (   364 PWs)   bands (ev):

    -3.5848  -0.7915   3.5716   4.2791

          k =-0.3750-0.1250-0.3750 (   362 PWs)   bands (ev):

    -4.6946   1.2393   3.5619   5.0332

          k =-0.3750 0.1250-0.1250 (   358 PWs)   bands (ev):

    -5.1827   2.5896   4.5236   4.5762

          k =-0.3750 0.6250-0.1250 (   365 PWs)   bands (ev):

    -3.7667   0.0396   2.5934   3.9362

          k =-0.1250 0.3750-0.1250 (   358 PWs)   bands (ev):

    -5.1827   2.5896   4.5236   4.5762

          k =-0.1250 0.8750-0.1250 (   364 PWs)   bands (ev):

    -2.7280  -0.9555   2.5023   3.2060

          k =-0.1250-0.3750-0.1250 (   358 PWs)   bands (ev):

    -5.1827   2.5896   4.5236   4.5762

          k =-0.1250 0.1250-0.1250 (   353 PWs)   bands (ev):

    -5.7007   4.1989   5.5100   5.5100

          k =-0.1250-0.6250 0.1250 (   357 PWs)   bands (ev):

    -4.1711   0.8841   3.2251   3.6651

          k =-0.1250-0.1250 0.1250 (   353 PWs)   bands (ev):

    -5.7007   4.1989   5.5100   5.5100

          k = 0.6250-0.1250-0.1250 (   357 PWs)   bands (ev):

    -4.1711   0.8841   3.2251   3.6651

          k = 0.6250 0.3750-0.1250 (   365 PWs)   bands (ev):

    -3.7667   0.0396   2.5934   3.9362

          k = 0.6250 0.1250 0.1250 (   357 PWs)   bands (ev):

    -4.1711   0.8841   3.2251   3.6651

          k = 0.6250 0.6250 0.1250 (   369 PWs)   bands (ev):

    -3.0980  -0.7329   1.9582   3.9695

          k =-0.8750 0.1250-0.6250 (   368 PWs)   bands (ev):

    -2.5696  -1.0484   1.9095   2.9590

          k =-0.8750 0.6250-0.6250 (   362 PWs)   bands (ev):

    -4.6946   1.2393   3.5619   5.0332

          k =-0.1250 0.6250-0.8750 (   368 PWs)   bands (ev):

    -2.5696  -1.0484   1.9095   2.9590

          k =-0.1250 1.1250-0.8750 (   364 PWs)   bands (ev):

    -2.7280  -0.9555   2.5023   3.2060

          k =-0.1250 0.8750-0.6250 (   368 PWs)   bands (ev):

    -2.5696  -1.0484   1.9095   2.9590

          k =-0.1250 1.3750-0.6250 (   369 PWs)   bands (ev):

    -3.0980  -0.7329   1.9582   3.9695

          k =-0.1250-0.8750-0.6250 (   368 PWs)   bands (ev):

    -2.5696  -1.0484   1.9095   2.9590

          k =-0.1250-0.3750-0.6250 (   365 PWs)   bands (ev):

    -3.7667   0.0396   2.5934   3.9362

          k = 0.8750-0.6250 0.1250 (   368 PWs)   bands (ev):

    -2.5696  -1.0484   1.9095   2.9590

          k = 0.8750-0.1250 0.1250 (   364 PWs)   bands (ev):

    -2.7280  -0.9555   2.5023   3.2060

          k =-0.6250-0.1250-0.3750 (   365 PWs)   bands (ev):

    -3.7667   0.0396   2.5934   3.9362

          k =-0.6250 0.3750-0.3750 (   364 PWs)   bands (ev):

    -3.5848  -0.7915   3.5716   4.2791

          k = 0.1250 0.3750-0.6250 (   365 PWs)   bands (ev):

    -3.7667   0.0396   2.5934   3.9362

          k = 0.1250 0.8750-0.6250 (   368 PWs)   bands (ev):

    -2.5696  -1.0484   1.9095   2.9590

          k = 0.1250 0.6250-0.3750 (   365 PWs)   bands (ev):

    -3.7667   0.0396   2.5934   3.9362

          k = 0.1250 1.1250-0.3750 (   368 PWs)   bands (ev):

    -2.5696  -1.0484   1.9095   2.9590

          k = 0.1250-0.6250-0.3750 (   365 PWs)   bands (ev):

    -3.7667   0.0396   2.5934   3.9362

          k = 0.1250-0.1250-0.3750 (   358 PWs)   bands (ev):

    -5.1827   2.5896   4.5236   4.5762

          k = 0.6250-0.3750-0.1250 (   365 PWs)   bands (ev):

    -3.7667   0.0396   2.5934   3.9362

          k = 0.6250 0.1250-0.1250 (   357 PWs)   bands (ev):

    -4.1711   0.8841   3.2251   3.6651

          k =-0.1250 0.8750 0.1250 (   364 PWs)   bands (ev):

    -2.7280  -0.9555   2.5023   3.2060

          k =-0.1250 1.3750 0.1250 (   357 PWs)   bands (ev):

    -4.1711   0.8841   3.2251   3.6651

          k =-0.8750-0.1250-0.1250 (   364 PWs)   bands (ev):

    -2.7280  -0.9555   2.5023   3.2060

          k =-0.8750 0.3750-0.1250 (   368 PWs)   bands (ev):

    -2.5696  -1.0484   1.9095   2.9590

          k =-0.8750 0.1250 0.1250 (   364 PWs)   bands (ev):

    -2.7280  -0.9555   2.5023   3.2060

          k =-0.8750 0.6250 0.1250 (   368 PWs)   bands (ev):

    -2.5696  -1.0484   1.9095   2.9590

          k =-0.3750-0.3750 0.3750 (   359 PWs)   bands (ev):

    -4.2725  -0.0165   4.7324   4.7324

          k =-0.3750 0.1250 0.3750 (   362 PWs)   bands (ev):

    -4.6946   1.2393   3.5619   5.0332

          k =-1.1250 0.3750-0.3750 (   369 PWs)   bands (ev):

    -3.0980  -0.7329   1.9582   3.9695

          k =-1.1250 0.8750-0.3750 (   357 PWs)   bands (ev):

    -4.1711   0.8841   3.2251   3.6651

          k =-0.3750 1.1250-0.3750 (   369 PWs)   bands (ev):

    -3.0980  -0.7329   1.9582   3.9695

          k =-0.3750 1.6250-0.3750 (   359 PWs)   bands (ev):

    -4.2725  -0.0165   4.7324   4.7324

          k =-0.3750-1.1250-0.3750 (   369 PWs)   bands (ev):

    -3.0980  -0.7329   1.9582   3.9695

          k =-0.3750-0.6250-0.3750 (   364 PWs)   bands (ev):

    -3.5848  -0.7915   3.5716   4.2791

     highest occupied level (ev):     5.5100

     Writing output data file silicon.10.40.save

                                                                                

     bravais-lattice index     =            2
     lattice parameter (alat)  =      10.4000  a.u.
     unit-cell volume          =     281.2160 (a.u.)^3
     number of atoms/cell      =            2
     number of atomic types    =            1
     kinetic-energy cut-off    =      18.0000  Ry
     charge density cut-off    =      72.0000  Ry
     convergence threshold     =      1.0E-12
     beta                      =       0.7000
     number of iterations used =            4
     Exchange-correlation      = SLA  PW   PBE  PBE ( 1  4  3  4 0 0)


     celldm(1)=   10.40000  celldm(2)=    0.00000  celldm(3)=    0.00000
     celldm(4)=    0.00000  celldm(5)=    0.00000  celldm(6)=    0.00000

     crystal axes: (cart. coord. in units of alat)
               a(1) = ( -0.5000  0.0000  0.5000 )  
               a(2) = (  0.0000  0.5000  0.5000 )  
               a(3) = ( -0.5000  0.5000  0.0000 )  

     reciprocal axes: (cart. coord. in units 2 pi/alat)
               b(1) = ( -1.0000 -1.0000  1.0000 )  
               b(2) = (  1.0000  1.0000  1.0000 )  
               b(3) = ( -1.0000  1.0000 -1.0000 )  


     Atoms inside the unit cell: 

     Cartesian axes

     site n.  atom      mass           positions (alat units)
        1     Si  28.0860   tau(    1) = (    0.00000    0.00000    0.00000  )
        2     Si  28.0860   tau(    2) = (    0.25000    0.25000    0.25000  )

     Computing dynamical matrix for 
                    q = (   0.0000000   0.5000000   0.0000000 )

      8 Sym.Ops. (no q -> -q+G )


     G cutoff =  197.2602  (    722 G-vectors)     FFT grid: ( 20, 20, 20)
     number of k points=    80

     PseudoPot. # 1 for Si read from file:
     /home/max/quantum_espresso/qe-6.1/pseudo/si_pbe_v1.uspp.F.UPF.txt
     MD5 check sum: a056efeee980c13900f22a371efd63c1
     Pseudo is Ultrasoft + core correction, Zval =  4.0
     Generated by new atomic code, or converted to UPF format
     Using radial grid of  899 points,  6 beta functions with: 
                l(1) =   0
                l(2) =   0
                l(3) =   1
                l(4) =   1
                l(5) =   2
                l(6) =   2
     Q(r) pseudized with  8 coefficients,  rinner =    0.900   0.900   0.900
                                                       0.900   0.900

     Mode symmetry, C_4v (4mm)  point group:


     Atomic displacements:
     There are   4 irreducible representations

     Representation     1      1 modes -A_1  G_1 D_1  To be done

     Representation     2      1 modes -B_2  G_4 D_2'  To be done

     Representation     3      2 modes -E    G_5 D_5  To be done

     Representation     4      2 modes -E    G_5 D_5  To be done



     Alpha used in Ewald sum =   0.7000
     PHONON       :    19.80s CPU        20.62s WALL



     Representation #  1 mode #   1

     Self-consistent Calculation

      iter #   1 total cpu time :    20.8 secs   av.it.:   5.8
      thresh= 1.000E-02 alpha_mix =  0.700 |ddv_scf|^2 =  2.928E-03

      iter #   2 total cpu time :    21.0 secs   av.it.:   7.7
      thresh= 5.411E-03 alpha_mix =  0.700 |ddv_scf|^2 =  3.888E-02

      iter #   3 total cpu time :    21.1 secs   av.it.:   6.8
      thresh= 1.000E-02 alpha_mix =  0.700 |ddv_scf|^2 =  1.422E-07

      iter #   4 total cpu time :    21.3 secs   av.it.:   8.2
      thresh= 3.771E-05 alpha_mix =  0.700 |ddv_scf|^2 =  1.785E-08

      iter #   5 total cpu time :    21.5 secs   av.it.:   7.7
      thresh= 1.336E-05 alpha_mix =  0.700 |ddv_scf|^2 =  7.578E-10

      iter #   6 total cpu time :    21.7 secs   av.it.:   7.9
      thresh= 2.753E-06 alpha_mix =  0.700 |ddv_scf|^2 =  3.588E-12

      iter #   7 total cpu time :    21.8 secs   av.it.:   7.8
      thresh= 1.894E-07 alpha_mix =  0.700 |ddv_scf|^2 =  6.262E-13

     End of self-consistent calculation

     Convergence has been achieved 


     Representation #  2 mode #   2

     Self-consistent Calculation

      iter #   1 total cpu time :    22.0 secs   av.it.:   4.9
      thresh= 1.000E-02 alpha_mix =  0.700 |ddv_scf|^2 =  5.169E-06

      iter #   2 total cpu time :    22.2 secs   av.it.:   8.8
      thresh= 2.274E-04 alpha_mix =  0.700 |ddv_scf|^2 =  1.343E-06

      iter #   3 total cpu time :    22.4 secs   av.it.:   8.5
      thresh= 1.159E-04 alpha_mix =  0.700 |ddv_scf|^2 =  3.194E-08

      iter #   4 total cpu time :    22.5 secs   av.it.:   8.2
      thresh= 1.787E-05 alpha_mix =  0.700 |ddv_scf|^2 =  8.115E-10

      iter #   5 total cpu time :    22.7 secs   av.it.:   8.5
      thresh= 2.849E-06 alpha_mix =  0.700 |ddv_scf|^2 =  1.113E-11

      iter #   6 total cpu time :    22.9 secs   av.it.:   7.6
      thresh= 3.336E-07 alpha_mix =  0.700 |ddv_scf|^2 =  7.867E-14

     End of self-consistent calculation

     Convergence has been achieved 


     Representation #  3 modes #   3  4

     Self-consistent Calculation

      iter #   1 total cpu time :    23.2 secs   av.it.:   5.0
      thresh= 1.000E-02 alpha_mix =  0.700 |ddv_scf|^2 =  9.392E-07

      iter #   2 total cpu time :    23.6 secs   av.it.:   9.8
      thresh= 9.691E-05 alpha_mix =  0.700 |ddv_scf|^2 =  1.192E-07

      iter #   3 total cpu time :    24.0 secs   av.it.:   9.5
      thresh= 3.453E-05 alpha_mix =  0.700 |ddv_scf|^2 =  4.931E-09

      iter #   4 total cpu time :    24.4 secs   av.it.:   8.8
      thresh= 7.022E-06 alpha_mix =  0.700 |ddv_scf|^2 =  8.828E-12

      iter #   5 total cpu time :    24.8 secs   av.it.:   9.1
      thresh= 2.971E-07 alpha_mix =  0.700 |ddv_scf|^2 =  3.016E-13

     End of self-consistent calculation

     Convergence has been achieved 


     Representation #  4 modes #   5  6

     Self-consistent Calculation

      iter #   1 total cpu time :    25.1 secs   av.it.:   5.0
      thresh= 1.000E-02 alpha_mix =  0.700 |ddv_scf|^2 =  9.425E-07

      iter #   2 total cpu time :    25.5 secs   av.it.:   9.8
      thresh= 9.708E-05 alpha_mix =  0.700 |ddv_scf|^2 =  1.196E-07

      iter #   3 total cpu time :    25.9 secs   av.it.:   9.5
      thresh= 3.459E-05 alpha_mix =  0.700 |ddv_scf|^2 =  7.352E-09

      iter #   4 total cpu time :    26.2 secs   av.it.:   8.9
      thresh= 8.574E-06 alpha_mix =  0.700 |ddv_scf|^2 =  1.547E-11

      iter #   5 total cpu time :    26.6 secs   av.it.:   9.2
      thresh= 3.933E-07 alpha_mix =  0.700 |ddv_scf|^2 =  4.582E-14

     End of self-consistent calculation

     Convergence has been achieved 

     Number of q in the star =    6
     List of q in the star:
          1   0.000000000   0.500000000   0.000000000
          2   0.000000000  -0.500000000   0.000000000
          3   0.500000000   0.000000000   0.000000000
          4   0.000000000   0.000000000   0.500000000
          5   0.000000000   0.000000000  -0.500000000
          6  -0.500000000   0.000000000   0.000000000

     Diagonalizing the dynamical matrix

     q = (    0.000000000   0.500000000   0.000000000 ) 

 **************************************************************************
     freq (    1) =       4.409252 [THz] =     147.076808 [cm-1]
     freq (    2) =       4.409252 [THz] =     147.076808 [cm-1]
     freq (    3) =       7.026145 [THz] =     234.366960 [cm-1]
     freq (    4) =      14.221882 [THz] =     474.390909 [cm-1]
     freq (    5) =      14.221882 [THz] =     474.390909 [cm-1]
     freq (    6) =      14.927295 [THz] =     497.920981 [cm-1]
 **************************************************************************

     Mode symmetry, C_4v (4mm)  point group:

     freq (  1 -  2) =        147.1  [cm-1]   --> E    G_5 D_5       
     freq (  3 -  3) =        234.4  [cm-1]   --> A_1  G_1 D_1       
     freq (  4 -  5) =        474.4  [cm-1]   --> E    G_5 D_5       
     freq (  6 -  6) =        497.9  [cm-1]   --> B_2  G_4 D_2'      

     Calculation of q =    0.7500000  -0.2500000   0.7500000

   Info: using nr1, nr2, nr3 values from input

   Info: using nr1, nr2, nr3 values from input

     Parallelization info
     --------------------
     sticks:   dense  smooth     PW     G-vecs:    dense   smooth      PW
     Min          65      65     30                  722      722     216
     Max          67      67     31                  723      723     218
     Sum         265     265    121                 2891     2891     869



     bravais-lattice index     =            2
     lattice parameter (alat)  =      10.4000  a.u.
     unit-cell volume          =     281.2160 (a.u.)^3
     number of atoms/cell      =            2
     number of atomic types    =            1
     number of electrons       =         8.00
     number of Kohn-Sham states=            4
     kinetic-energy cutoff     =      18.0000  Ry
     charge density cutoff     =      72.0000  Ry
     Exchange-correlation      = SLA  PW   PBE  PBE ( 1  4  3  4 0 0)

     celldm(1)=  10.400000  celldm(2)=   0.000000  celldm(3)=   0.000000
     celldm(4)=   0.000000  celldm(5)=   0.000000  celldm(6)=   0.000000

     crystal axes: (cart. coord. in units of alat)
               a(1) = (  -0.500000   0.000000   0.500000 )  
               a(2) = (   0.000000   0.500000   0.500000 )  
               a(3) = (  -0.500000   0.500000   0.000000 )  

     reciprocal axes: (cart. coord. in units 2 pi/alat)
               b(1) = ( -1.000000 -1.000000  1.000000 )  
               b(2) = (  1.000000  1.000000  1.000000 )  
               b(3) = ( -1.000000  1.000000 -1.000000 )  


     PseudoPot. # 1 for Si read from file:
     /home/max/quantum_espresso/qe-6.1/pseudo/si_pbe_v1.uspp.F.UPF.txt
     MD5 check sum: a056efeee980c13900f22a371efd63c1
     Pseudo is Ultrasoft + core correction, Zval =  4.0
     Generated by new atomic code, or converted to UPF format
     Using radial grid of  899 points,  6 beta functions with: 
                l(1) =   0
                l(2) =   0
                l(3) =   1
                l(4) =   1
                l(5) =   2
                l(6) =   2
     Q(r) pseudized with  8 coefficients,  rinner =    0.900   0.900   0.900
                                                       0.900   0.900

     atomic species   valence    mass     pseudopotential
        Si             4.00    28.08600     Si( 1.00)

     48 Sym. Ops., with inversion, found



   Cartesian axes

     site n.     atom                  positions (alat units)
         1           Si  tau(   1) = (   0.0000000   0.0000000   0.0000000  )
         2           Si  tau(   2) = (   0.2500000   0.2500000   0.2500000  )

     number of k points=   288

     Number of k-points >= 100: set verbosity='high' to print them.

     Dense  grid:     2891 G-vectors     FFT dimensions: (  20,  20,  20)

     Estimated max dynamical RAM per process >       0.33MB

     Estimated total allocated dynamical RAM >       1.33MB

     Check: negative/imaginary core charge=   -0.000006    0.000000

     The potential is recalculated from file :
     ./_ph0/silicon.10.40.save/charge-density.dat

     Starting wfc are    8 atomic wfcs

     Band Structure Calculation
     Davidson diagonalization with overlap

     ethr =  1.25E-10,  avg # of iterations = 11.6

     total cpu time spent up to now is        3.8 secs

     End of band structure calculation

     Number of k-points >= 100: set verbosity='high' to print the bands.

     highest occupied level (ev):     5.5100

     Writing output data file silicon.10.40.save

                                                                                

     bravais-lattice index     =            2
     lattice parameter (alat)  =      10.4000  a.u.
     unit-cell volume          =     281.2160 (a.u.)^3
     number of atoms/cell      =            2
     number of atomic types    =            1
     kinetic-energy cut-off    =      18.0000  Ry
     charge density cut-off    =      72.0000  Ry
     convergence threshold     =      1.0E-12
     beta                      =       0.7000
     number of iterations used =            4
     Exchange-correlation      = SLA  PW   PBE  PBE ( 1  4  3  4 0 0)


     celldm(1)=   10.40000  celldm(2)=    0.00000  celldm(3)=    0.00000
     celldm(4)=    0.00000  celldm(5)=    0.00000  celldm(6)=    0.00000

     crystal axes: (cart. coord. in units of alat)
               a(1) = ( -0.5000  0.0000  0.5000 )  
               a(2) = (  0.0000  0.5000  0.5000 )  
               a(3) = ( -0.5000  0.5000  0.0000 )  

     reciprocal axes: (cart. coord. in units 2 pi/alat)
               b(1) = ( -1.0000 -1.0000  1.0000 )  
               b(2) = (  1.0000  1.0000  1.0000 )  
               b(3) = ( -1.0000  1.0000 -1.0000 )  


     Atoms inside the unit cell: 

     Cartesian axes

     site n.  atom      mass           positions (alat units)
        1     Si  28.0860   tau(    1) = (    0.00000    0.00000    0.00000  )
        2     Si  28.0860   tau(    2) = (    0.25000    0.25000    0.25000  )

     Computing dynamical matrix for 
                    q = (   0.7500000  -0.2500000   0.7500000 )

      2 Sym.Ops. (no q -> -q+G )


     G cutoff =  197.2602  (    723 G-vectors)     FFT grid: ( 20, 20, 20)
     number of k points=   288

     PseudoPot. # 1 for Si read from file:
     /home/max/quantum_espresso/qe-6.1/pseudo/si_pbe_v1.uspp.F.UPF.txt
     MD5 check sum: a056efeee980c13900f22a371efd63c1
     Pseudo is Ultrasoft + core correction, Zval =  4.0
     Generated by new atomic code, or converted to UPF format
     Using radial grid of  899 points,  6 beta functions with: 
                l(1) =   0
                l(2) =   0
                l(3) =   1
                l(4) =   1
                l(5) =   2
                l(6) =   2
     Q(r) pseudized with  8 coefficients,  rinner =    0.900   0.900   0.900
                                                       0.900   0.900

     Mode symmetry, C_s (m)     point group:


     Atomic displacements:
     There are   6 irreducible representations

     Representation     1      1 modes -A'  To be done

     Representation     2      1 modes -A'  To be done

     Representation     3      1 modes -A'  To be done

     Representation     4      1 modes -A'  To be done

     Representation     5      1 modes -A''  To be done

     Representation     6      1 modes -A''  To be done



     Alpha used in Ewald sum =   0.7000
     PHONON       :    28.04s CPU        29.21s WALL



     Representation #  1 mode #   1

     Self-consistent Calculation

      iter #   1 total cpu time :    29.7 secs   av.it.:   5.3
      thresh= 1.000E-02 alpha_mix =  0.700 |ddv_scf|^2 =  6.062E-05

      iter #   2 total cpu time :    30.4 secs   av.it.:   8.9
      thresh= 7.786E-04 alpha_mix =  0.700 |ddv_scf|^2 =  1.616E-04

      iter #   3 total cpu time :    31.0 secs   av.it.:   7.6
      thresh= 1.271E-03 alpha_mix =  0.700 |ddv_scf|^2 =  1.129E-06

      iter #   4 total cpu time :    31.6 secs   av.it.:   8.4
      thresh= 1.062E-04 alpha_mix =  0.700 |ddv_scf|^2 =  5.978E-08

      iter #   5 total cpu time :    32.2 secs   av.it.:   8.3
      thresh= 2.445E-05 alpha_mix =  0.700 |ddv_scf|^2 =  7.512E-09

      iter #   6 total cpu time :    32.9 secs   av.it.:   8.5
      thresh= 8.667E-06 alpha_mix =  0.700 |ddv_scf|^2 =  1.120E-10

      iter #   7 total cpu time :    33.5 secs   av.it.:   8.7
      thresh= 1.058E-06 alpha_mix =  0.700 |ddv_scf|^2 =  4.049E-12

      iter #   8 total cpu time :    34.2 secs   av.it.:   8.5
      thresh= 2.012E-07 alpha_mix =  0.700 |ddv_scf|^2 =  3.092E-13

     End of self-consistent calculation

     Convergence has been achieved 


     Representation #  2 mode #   2

     Self-consistent Calculation

      iter #   1 total cpu time :    34.7 secs   av.it.:   5.4
      thresh= 1.000E-02 alpha_mix =  0.700 |ddv_scf|^2 =  1.093E-04

      iter #   2 total cpu time :    35.4 secs   av.it.:   8.7
      thresh= 1.046E-03 alpha_mix =  0.700 |ddv_scf|^2 =  3.128E-04

      iter #   3 total cpu time :    35.9 secs   av.it.:   7.4
      thresh= 1.769E-03 alpha_mix =  0.700 |ddv_scf|^2 =  8.346E-07

      iter #   4 total cpu time :    36.6 secs   av.it.:   8.5
      thresh= 9.136E-05 alpha_mix =  0.700 |ddv_scf|^2 =  5.548E-08

      iter #   5 total cpu time :    37.2 secs   av.it.:   8.3
      thresh= 2.355E-05 alpha_mix =  0.700 |ddv_scf|^2 =  1.091E-08

      iter #   6 total cpu time :    37.8 secs   av.it.:   8.5
      thresh= 1.044E-05 alpha_mix =  0.700 |ddv_scf|^2 =  1.306E-10

      iter #   7 total cpu time :    38.5 secs   av.it.:   8.6
      thresh= 1.143E-06 alpha_mix =  0.700 |ddv_scf|^2 =  3.202E-12

      iter #   8 total cpu time :    39.1 secs   av.it.:   8.6
      thresh= 1.789E-07 alpha_mix =  0.700 |ddv_scf|^2 =  8.447E-13

     End of self-consistent calculation

     Convergence has been achieved 


     Representation #  3 mode #   3

     Self-consistent Calculation

      iter #   1 total cpu time :    39.7 secs   av.it.:   5.3
      thresh= 1.000E-02 alpha_mix =  0.700 |ddv_scf|^2 =  8.617E-05

      iter #   2 total cpu time :    40.3 secs   av.it.:   8.7
      thresh= 9.283E-04 alpha_mix =  0.700 |ddv_scf|^2 =  2.293E-04

      iter #   3 total cpu time :    40.9 secs   av.it.:   7.4
      thresh= 1.514E-03 alpha_mix =  0.700 |ddv_scf|^2 =  1.419E-06

      iter #   4 total cpu time :    41.5 secs   av.it.:   8.2
      thresh= 1.191E-04 alpha_mix =  0.700 |ddv_scf|^2 =  5.912E-08

      iter #   5 total cpu time :    42.2 secs   av.it.:   8.4
      thresh= 2.431E-05 alpha_mix =  0.700 |ddv_scf|^2 =  1.097E-08

      iter #   6 total cpu time :    42.8 secs   av.it.:   8.5
      thresh= 1.047E-05 alpha_mix =  0.700 |ddv_scf|^2 =  8.456E-11

      iter #   7 total cpu time :    43.5 secs   av.it.:   8.5
      thresh= 9.195E-07 alpha_mix =  0.700 |ddv_scf|^2 =  2.774E-12

      iter #   8 total cpu time :    44.1 secs   av.it.:   8.8
      thresh= 1.666E-07 alpha_mix =  0.700 |ddv_scf|^2 =  7.953E-13

     End of self-consistent calculation

     Convergence has been achieved 


     Representation #  4 mode #   4

     Self-consistent Calculation

      iter #   1 total cpu time :    44.6 secs   av.it.:   5.2
      thresh= 1.000E-02 alpha_mix =  0.700 |ddv_scf|^2 =  3.748E-05

      iter #   2 total cpu time :    45.3 secs   av.it.:   9.0
[...]
        k(   59) = (  -0.8750000   0.1250000  -0.1250000), wk =   0.0625000
        k(   60) = (  -1.3750000  -0.8750000  -0.1250000), wk =   0.0000000
        k(   61) = (  -1.1250000   0.3750000  -0.3750000), wk =   0.0625000
        k(   62) = (  -1.6250000  -0.6250000  -0.3750000), wk =   0.0000000
        k(   63) = (  -0.3750000   0.3750000   1.1250000), wk =   0.0625000
        k(   64) = (  -0.8750000  -0.6250000   1.1250000), wk =   0.0000000

     Dense  grid:     2891 G-vectors     FFT dimensions: (  20,  20,  20)

     Estimated max dynamical RAM per process >       0.33MB

     Estimated total allocated dynamical RAM >       1.33MB

     Check: negative/imaginary core charge=   -0.000006    0.000000

     The potential is recalculated from file :
     ./_ph0/silicon.10.40.save/charge-density.dat

     Starting wfc are    8 atomic wfcs

     Band Structure Calculation
     Davidson diagonalization with overlap

     ethr =  1.25E-10,  avg # of iterations = 11.6

     total cpu time spent up to now is        5.9 secs

     End of band structure calculation

          k =-0.1250 0.1250 0.1250 (   353 PWs)   bands (ev):

    -5.7007   4.1989   5.5100   5.5100

          k =-0.6250-0.8750 0.1250 (   368 PWs)   bands (ev):

    -2.5696  -1.0484   1.9095   2.9590

          k =-0.3750 0.3750-0.1250 (   362 PWs)   bands (ev):

    -4.6946   1.2393   3.5619   5.0332

          k =-0.8750-0.6250-0.1250 (   368 PWs)   bands (ev):

    -2.5696  -1.0484   1.9095   2.9590

          k = 0.3750-0.3750 0.6250 (   364 PWs)   bands (ev):

    -3.5848  -0.7915   3.5716   4.2791

          k =-0.1250-1.3750 0.6250 (   369 PWs)   bands (ev):

    -3.0980  -0.7329   1.9582   3.9695

          k = 0.1250-0.1250 0.3750 (   358 PWs)   bands (ev):

    -5.1827   2.5896   4.5236   4.5762

          k =-0.3750-1.1250 0.3750 (   369 PWs)   bands (ev):

    -3.0980  -0.7329   1.9582   3.9695

          k =-0.1250 0.6250 0.1250 (   357 PWs)   bands (ev):

    -4.1711   0.8841   3.2251   3.6651

          k =-0.6250-0.3750 0.1250 (   365 PWs)   bands (ev):

    -3.7667   0.0396   2.5934   3.9362

          k = 0.6250-0.1250 0.8750 (   368 PWs)   bands (ev):

    -2.5696  -1.0484   1.9095   2.9590

          k = 0.1250-1.1250 0.8750 (   364 PWs)   bands (ev):

    -2.7280  -0.9555   2.5023   3.2060

          k = 0.3750 0.1250 0.6250 (   365 PWs)   bands (ev):

    -3.7667   0.0396   2.5934   3.9362

          k =-0.1250-0.8750 0.6250 (   368 PWs)   bands (ev):

    -2.5696  -1.0484   1.9095   2.9590

          k =-0.1250-0.8750 0.1250 (   364 PWs)   bands (ev):

    -2.7280  -0.9555   2.5023   3.2060

          k =-0.6250-1.8750 0.1250 (   357 PWs)   bands (ev):

    -4.1711   0.8841   3.2251   3.6651

          k =-0.3750 0.3750 0.3750 (   359 PWs)   bands (ev):

    -4.2725  -0.0165   4.7324   4.7324

          k =-0.8750-0.6250 0.3750 (   365 PWs)   bands (ev):

    -3.7667   0.0396   2.5934   3.9362

          k = 0.3750-0.3750 1.1250 (   369 PWs)   bands (ev):

    -3.0980  -0.7329   1.9582   3.9695

          k =-0.1250-1.3750 1.1250 (   368 PWs)   bands (ev):

    -2.5696  -1.0484   1.9095   2.9590

          k = 0.1250-0.3750 0.3750 (   362 PWs)   bands (ev):

    -4.6946   1.2393   3.5619   5.0332

          k =-0.3750-1.3750 0.3750 (   364 PWs)   bands (ev):

    -3.5848  -0.7915   3.5716   4.2791

          k = 0.3750-0.3750-0.1250 (   362 PWs)   bands (ev):

    -4.6946   1.2393   3.5619   5.0332

          k =-0.1250-1.3750-0.1250 (   357 PWs)   bands (ev):

    -4.1711   0.8841   3.2251   3.6651

          k =-0.6250 0.3750-0.3750 (   364 PWs)   bands (ev):

    -3.5848  -0.7915   3.5716   4.2791

          k =-1.1250-0.6250-0.3750 (   365 PWs)   bands (ev):

    -3.7667   0.0396   2.5934   3.9362

          k =-0.3750 0.3750 0.6250 (   364 PWs)   bands (ev):

    -3.5848  -0.7915   3.5716   4.2791

          k =-0.8750-0.6250 0.6250 (   362 PWs)   bands (ev):

    -4.6946   1.2393   3.5619   5.0332

          k =-0.3750 0.1250-0.1250 (   358 PWs)   bands (ev):

    -5.1827   2.5896   4.5236   4.5762

          k =-0.8750-0.8750-0.1250 (   364 PWs)   bands (ev):

    -2.7280  -0.9555   2.5023   3.2060

          k =-0.1250 0.1250 0.3750 (   358 PWs)   bands (ev):

    -5.1827   2.5896   4.5236   4.5762

          k =-0.6250-0.8750 0.3750 (   365 PWs)   bands (ev):

    -3.7667   0.0396   2.5934   3.9362

          k = 0.1250 0.6250-0.1250 (   357 PWs)   bands (ev):

    -4.1711   0.8841   3.2251   3.6651

          k =-0.3750-0.3750-0.1250 (   362 PWs)   bands (ev):

    -4.6946   1.2393   3.5619   5.0332

          k = 0.6250 0.1250-0.1250 (   357 PWs)   bands (ev):

    -4.1711   0.8841   3.2251   3.6651

          k = 0.1250-0.8750-0.1250 (   364 PWs)   bands (ev):

    -2.7280  -0.9555   2.5023   3.2060

          k =-0.8750 0.1250-0.6250 (   368 PWs)   bands (ev):

    -2.5696  -1.0484   1.9095   2.9590

          k =-1.3750-0.8750-0.6250 (   362 PWs)   bands (ev):

    -4.6946   1.2393   3.5619   5.0332

          k = 0.8750-0.1250 0.6250 (   368 PWs)   bands (ev):

    -2.5696  -1.0484   1.9095   2.9590

          k = 0.3750-1.1250 0.6250 (   365 PWs)   bands (ev):

    -3.7667   0.0396   2.5934   3.9362

          k =-0.6250 0.1250 0.8750 (   368 PWs)   bands (ev):

    -2.5696  -1.0484   1.9095   2.9590

          k =-1.1250-0.8750 0.8750 (   353 PWs)   bands (ev):

    -5.7007   4.1989   5.5100   5.5100

          k =-0.1250 0.8750 0.6250 (   368 PWs)   bands (ev):

    -2.5696  -1.0484   1.9095   2.9590

          k =-0.6250-0.1250 0.6250 (   369 PWs)   bands (ev):

    -3.0980  -0.7329   1.9582   3.9695

          k = 0.1250 0.8750-0.6250 (   368 PWs)   bands (ev):

    -2.5696  -1.0484   1.9095   2.9590

          k =-0.3750-0.1250-0.6250 (   365 PWs)   bands (ev):

    -3.7667   0.0396   2.5934   3.9362

          k =-0.6250-0.1250-0.3750 (   365 PWs)   bands (ev):

    -3.7667   0.0396   2.5934   3.9362

          k =-1.1250-1.1250-0.3750 (   357 PWs)   bands (ev):

    -4.1711   0.8841   3.2251   3.6651

          k = 0.6250 0.1250 0.3750 (   365 PWs)   bands (ev):

    -3.7667   0.0396   2.5934   3.9362

          k = 0.1250-0.8750 0.3750 (   368 PWs)   bands (ev):

    -2.5696  -1.0484   1.9095   2.9590

          k =-0.3750-0.1250 0.6250 (   365 PWs)   bands (ev):

    -3.7667   0.0396   2.5934   3.9362

          k =-0.8750-1.1250 0.6250 (   358 PWs)   bands (ev):

    -5.1827   2.5896   4.5236   4.5762

          k = 0.1250 0.6250 0.3750 (   365 PWs)   bands (ev):

    -3.7667   0.0396   2.5934   3.9362

          k =-0.3750-0.3750 0.3750 (   359 PWs)   bands (ev):

    -4.2725  -0.0165   4.7324   4.7324

          k =-0.1250 0.6250-0.3750 (   365 PWs)   bands (ev):

    -3.7667   0.0396   2.5934   3.9362

          k =-0.6250-0.3750-0.3750 (   364 PWs)   bands (ev):

    -3.5848  -0.7915   3.5716   4.2791

          k = 0.1250-0.8750-0.1250 (   364 PWs)   bands (ev):

    -2.7280  -0.9555   2.5023   3.2060

          k =-0.3750-1.8750-0.1250 (   358 PWs)   bands (ev):

    -5.1827   2.5896   4.5236   4.5762

          k =-0.8750 0.1250-0.1250 (   364 PWs)   bands (ev):

    -2.7280  -0.9555   2.5023   3.2060

          k =-1.3750-0.8750-0.1250 (   368 PWs)   bands (ev):

    -2.5696  -1.0484   1.9095   2.9590

          k =-1.1250 0.3750-0.3750 (   369 PWs)   bands (ev):

    -3.0980  -0.7329   1.9582   3.9695

          k =-1.6250-0.6250-0.3750 (   364 PWs)   bands (ev):

    -3.5848  -0.7915   3.5716   4.2791

          k =-0.3750 0.3750 1.1250 (   369 PWs)   bands (ev):

    -3.0980  -0.7329   1.9582   3.9695

          k =-0.8750-0.6250 1.1250 (   358 PWs)   bands (ev):

    -5.1827   2.5896   4.5236   4.5762

     highest occupied level (ev):     5.5100

     Writing output data file silicon.10.40.save

                                                                                

     bravais-lattice index     =            2
     lattice parameter (alat)  =      10.4000  a.u.
     unit-cell volume          =     281.2160 (a.u.)^3
     number of atoms/cell      =            2
     number of atomic types    =            1
     kinetic-energy cut-off    =      18.0000  Ry
     charge density cut-off    =      72.0000  Ry
     convergence threshold     =      1.0E-12
     beta                      =       0.7000
     number of iterations used =            4
     Exchange-correlation      = SLA  PW   PBE  PBE ( 1  4  3  4 0 0)


     celldm(1)=   10.40000  celldm(2)=    0.00000  celldm(3)=    0.00000
     celldm(4)=    0.00000  celldm(5)=    0.00000  celldm(6)=    0.00000

     crystal axes: (cart. coord. in units of alat)
               a(1) = ( -0.5000  0.0000  0.5000 )  
               a(2) = (  0.0000  0.5000  0.5000 )  
               a(3) = ( -0.5000  0.5000  0.0000 )  

     reciprocal axes: (cart. coord. in units 2 pi/alat)
               b(1) = ( -1.0000 -1.0000  1.0000 )  
               b(2) = (  1.0000  1.0000  1.0000 )  
               b(3) = ( -1.0000  1.0000 -1.0000 )  


     Atoms inside the unit cell: 

     Cartesian axes

     site n.  atom      mass           positions (alat units)
        1     Si  28.0860   tau(    1) = (    0.00000    0.00000    0.00000  )
        2     Si  28.0860   tau(    2) = (    0.25000    0.25000    0.25000  )

     Computing dynamical matrix for 
                    q = (  -0.5000000  -1.0000000   0.0000000 )

      8 Sym.Ops. (no q -> -q+G )


     G cutoff =  197.2602  (    722 G-vectors)     FFT grid: ( 20, 20, 20)
     number of k points=    64

     PseudoPot. # 1 for Si read from file:
     /home/max/quantum_espresso/qe-6.1/pseudo/si_pbe_v1.uspp.F.UPF.txt
     MD5 check sum: a056efeee980c13900f22a371efd63c1
     Pseudo is Ultrasoft + core correction, Zval =  4.0
     Generated by new atomic code, or converted to UPF format
     Using radial grid of  899 points,  6 beta functions with: 
                l(1) =   0
                l(2) =   0
                l(3) =   1
                l(4) =   1
                l(5) =   2
                l(6) =   2
     Q(r) pseudized with  8 coefficients,  rinner =    0.900   0.900   0.900
                                                       0.900   0.900


     Atomic displacements:
     There are   3 irreducible representations

     Representation     1      2 modes -  To be done

     Representation     2      2 modes -  To be done

     Representation     3      2 modes -  To be done



     Alpha used in Ewald sum =   0.7000
     PHONON       :  1m 9.71s CPU     1m12.66s WALL



     Representation #  1 modes #   1  2

     Self-consistent Calculation

      iter #   1 total cpu time :    72.9 secs   av.it.:   5.3
      thresh= 1.000E-02 alpha_mix =  0.700 |ddv_scf|^2 =  6.558E-06

      iter #   2 total cpu time :    73.2 secs   av.it.:   9.8
      thresh= 2.561E-04 alpha_mix =  0.700 |ddv_scf|^2 =  3.530E-06

      iter #   3 total cpu time :    73.6 secs   av.it.:   9.2
      thresh= 1.879E-04 alpha_mix =  0.700 |ddv_scf|^2 =  8.555E-09

      iter #   4 total cpu time :    73.9 secs   av.it.:   9.1
      thresh= 9.250E-06 alpha_mix =  0.700 |ddv_scf|^2 =  5.342E-11

      iter #   5 total cpu time :    74.2 secs   av.it.:   8.8
      thresh= 7.309E-07 alpha_mix =  0.700 |ddv_scf|^2 =  7.940E-13

     End of self-consistent calculation

     Convergence has been achieved 


     Representation #  2 modes #   3  4

     Self-consistent Calculation

      iter #   1 total cpu time :    74.4 secs   av.it.:   5.3
      thresh= 1.000E-02 alpha_mix =  0.700 |ddv_scf|^2 =  9.702E-06

      iter #   2 total cpu time :    74.8 secs   av.it.:   9.9
      thresh= 3.115E-04 alpha_mix =  0.700 |ddv_scf|^2 =  1.319E-05

      iter #   3 total cpu time :    75.1 secs   av.it.:   9.1
      thresh= 3.632E-04 alpha_mix =  0.700 |ddv_scf|^2 =  1.017E-08

      iter #   4 total cpu time :    75.4 secs   av.it.:   8.9
      thresh= 1.009E-05 alpha_mix =  0.700 |ddv_scf|^2 =  9.686E-11

      iter #   5 total cpu time :    75.7 secs   av.it.:   9.4
      thresh= 9.842E-07 alpha_mix =  0.700 |ddv_scf|^2 =  1.859E-12

      iter #   6 total cpu time :    76.0 secs   av.it.:   9.1
      thresh= 1.363E-07 alpha_mix =  0.700 |ddv_scf|^2 =  1.612E-14

     End of self-consistent calculation

     Convergence has been achieved 


     Representation #  3 modes #   5  6

     Self-consistent Calculation

      iter #   1 total cpu time :    76.3 secs   av.it.:   5.1
      thresh= 1.000E-02 alpha_mix =  0.700 |ddv_scf|^2 =  2.676E-06

      iter #   2 total cpu time :    76.6 secs   av.it.:   9.7
      thresh= 1.636E-04 alpha_mix =  0.700 |ddv_scf|^2 =  1.485E-06

      iter #   3 total cpu time :    76.9 secs   av.it.:   9.0
      thresh= 1.218E-04 alpha_mix =  0.700 |ddv_scf|^2 =  8.026E-09

      iter #   4 total cpu time :    77.2 secs   av.it.:   8.7
      thresh= 8.959E-06 alpha_mix =  0.700 |ddv_scf|^2 =  6.460E-11

      iter #   5 total cpu time :    77.5 secs   av.it.:   9.1
      thresh= 8.037E-07 alpha_mix =  0.700 |ddv_scf|^2 =  8.338E-13

     End of self-consistent calculation

     Convergence has been achieved 

     Number of q in the star =    6
     List of q in the star:
          1  -0.500000000  -1.000000000   0.000000000
          2   0.000000000   1.000000000   0.500000000
          3   0.000000000  -1.000000000  -0.500000000
          4   0.500000000   1.000000000   0.000000000
          5  -1.000000000  -0.500000000   0.000000000
          6   0.000000000  -0.500000000  -1.000000000

     Diagonalizing the dynamical matrix

     q = (   -0.500000000  -1.000000000   0.000000000 ) 

 **************************************************************************
     freq (    1) =       7.801616 [THz] =     260.233911 [cm-1]
     freq (    2) =       7.801616 [THz] =     260.233911 [cm-1]
     freq (    3) =      11.026878 [THz] =     367.817052 [cm-1]
     freq (    4) =      11.026878 [THz] =     367.817052 [cm-1]
     freq (    5) =      13.766541 [THz] =     459.202387 [cm-1]
     freq (    6) =      13.766541 [THz] =     459.202387 [cm-1]
 **************************************************************************

     init_run     :      0.52s CPU      0.54s WALL (       7 calls)
     electrons    :      4.42s CPU      4.60s WALL (       7 calls)

     Called by init_run:
     wfcinit      :      0.00s CPU      0.00s WALL (       7 calls)
     potinit      :      0.02s CPU      0.02s WALL (       7 calls)

     Called by electrons:
     c_bands      :      4.42s CPU      4.59s WALL (       7 calls)
     v_of_rho     :      0.01s CPU      0.01s WALL (       8 calls)
     newd         :      0.03s CPU      0.03s WALL (       8 calls)

     Called by c_bands:
     init_us_2    :      0.67s CPU      0.70s WALL (   17588 calls)
     cegterg      :      3.72s CPU      3.85s WALL (     796 calls)

     Called by sum_band:

     Called by *egterg:
     h_psi        :     41.12s CPU     42.95s WALL (  152084 calls)
     s_psi        :      5.83s CPU      6.10s WALL (  308888 calls)
     g_psi        :      0.03s CPU      0.03s WALL (    9268 calls)
     cdiaghg      :      0.42s CPU      0.44s WALL (   10064 calls)

     Called by h_psi:
     h_psi:pot    :     40.93s CPU     42.75s WALL (  152084 calls)
     h_psi:calbec :      4.02s CPU      4.20s WALL (  152084 calls)
     vloc_psi     :     33.78s CPU     35.28s WALL (  152084 calls)
     add_vuspsi   :      2.92s CPU      3.05s WALL (  152084 calls)

     General routines
     calbec       :      8.93s CPU      9.33s WALL (  345260 calls)
     fft          :      0.28s CPU      0.29s WALL (    5239 calls)
     ffts         :      0.13s CPU      0.13s WALL (    2748 calls)
     fftw         :     39.01s CPU     40.73s WALL ( 1377344 calls)
     davcio       :      0.31s CPU      0.33s WALL (   79045 calls)

     Parallel routines
     fft_scatter  :      6.97s CPU      7.30s WALL ( 1385331 calls)

     PHONON       :  1m14.33s CPU     1m17.52s WALL

     INITIALIZATION: 
     phq_setup    :      0.05s CPU      0.05s WALL (       8 calls)
     phq_init     :      1.94s CPU      1.98s WALL (       8 calls)

     phq_init     :      1.94s CPU      1.98s WALL (       8 calls)
     set_drhoc    :      0.29s CPU      0.29s WALL (      24 calls)
     init_vloc    :      0.01s CPU      0.01s WALL (       8 calls)
     init_us_1    :      0.48s CPU      0.48s WALL (       8 calls)
     newd         :      0.03s CPU      0.03s WALL (       8 calls)
     dvanqq       :      0.23s CPU      0.24s WALL (       8 calls)
     drho         :      0.98s CPU      1.01s WALL (       8 calls)

     DYNAMICAL MATRIX:
     dynmat0      :      0.48s CPU      0.49s WALL (       8 calls)
     phqscf       :     64.96s CPU     67.83s WALL (       8 calls)
     dynmatrix    :      0.01s CPU      0.02s WALL (       8 calls)

     phqscf       :     64.96s CPU     67.83s WALL (       8 calls)
     solve_linter :     64.28s CPU     67.11s WALL (      32 calls)
     drhodv       :      0.47s CPU      0.50s WALL (      32 calls)

     dynmat0      :      0.48s CPU      0.49s WALL (       8 calls)
     dynmat_us    :      0.26s CPU      0.27s WALL (       8 calls)
     d2ionq       :      0.01s CPU      0.01s WALL (       8 calls)
     dynmatcc     :      0.21s CPU      0.21s WALL (       8 calls)

     dynmat_us    :      0.26s CPU      0.27s WALL (       8 calls)
     addusdynmat  :      0.00s CPU      0.00s WALL (       8 calls)

     phqscf       :     64.96s CPU     67.83s WALL (       8 calls)
     solve_linter :     64.28s CPU     67.11s WALL (      32 calls)

     solve_linter :     64.28s CPU     67.11s WALL (      32 calls)
     dvqpsi_us    :      1.58s CPU      1.65s WALL (    2508 calls)
     ortho        :      0.93s CPU      0.97s WALL (   15550 calls)
     cgsolve      :     50.29s CPU     52.55s WALL (   15550 calls)
     incdrhoscf   :      4.39s CPU      4.58s WALL (   15550 calls)
     addusddens   :      1.10s CPU      1.12s WALL (     228 calls)
     vpsifft      :      3.21s CPU      3.35s WALL (   12922 calls)
     dv_of_drho   :      0.20s CPU      0.20s WALL (     295 calls)
     mix_pot      :      0.05s CPU      0.06s WALL (     201 calls)
     psymdvscf    :      0.80s CPU      0.80s WALL (     196 calls)
     newdq        :      1.17s CPU      1.23s WALL (     201 calls)
     adddvscf     :      0.46s CPU      0.48s WALL (   13042 calls)
     drhodvus     :      0.00s CPU      0.00s WALL (      32 calls)

     dvqpsi_us    :      1.58s CPU      1.65s WALL (    2508 calls)
     dvqpsi_us_on :      0.81s CPU      0.85s WALL (    2508 calls)

     cgsolve      :     50.29s CPU     52.55s WALL (   15550 calls)
     ch_psi       :     48.83s CPU     51.02s WALL (  141224 calls)

     ch_psi       :     48.83s CPU     51.02s WALL (  141224 calls)
     h_psi        :     41.12s CPU     42.95s WALL (  152084 calls)
     last         :      7.73s CPU      8.08s WALL (  141224 calls)

     h_psi        :     41.12s CPU     42.95s WALL (  152084 calls)
     add_vuspsi   :      2.92s CPU      3.05s WALL (  152084 calls)

     incdrhoscf   :      4.39s CPU      4.58s WALL (   15550 calls)
     addusdbec    :      0.58s CPU      0.61s WALL (   17998 calls)

     drhodvus     :      0.00s CPU      0.00s WALL (      32 calls)

      General routines
     calbec       :      8.93s CPU      9.33s WALL (  345260 calls)
     fft          :      0.28s CPU      0.29s WALL (    5239 calls)
     ffts         :      0.13s CPU      0.13s WALL (    2748 calls)
     fftw         :     39.01s CPU     40.73s WALL ( 1377344 calls)
     davcio       :      0.31s CPU      0.33s WALL (   79045 calls)
     write_rec    :      0.20s CPU      0.21s WALL (     233 calls)


     PHONON       :  1m14.33s CPU     1m17.53s WALL


   This run was terminated on:   1:34: 0   9Nov2017            

=------------------------------------------------------------------------------=
   JOB DONE.
=------------------------------------------------------------------------------=
