
     Program PWSCF v.6.1 (svn rev. 13369) starts on 10Nov2017 at 10:31:26 

     This program is part of the open-source Quantum ESPRESSO suite
     for quantum simulation of materials; please cite
         "P. Giannozzi et al., J. Phys.:Condens. Matter 21 395502 (2009);
          URL http://www.quantum-espresso.org", 
     in publications or presentations arising from this work. More details at
     http://www.quantum-espresso.org/quote

     Parallel version (MPI), running on     4 processors
     R & G space division:  proc/nbgrp/npool/nimage =       4
     Waiting for input...
     Reading input from standard input
     Message from routine read_cards :
     DEPRECATED: no units specified in ATOMIC_POSITIONS card
     Message from routine read_cards :
     ATOMIC_POSITIONS: units set to alat

     Current dimensions of program PWSCF are:
     Max number of different atomic species (ntypx) = 10
     Max number of k-points (npk) =  40000
     Max angular momentum in pseudopotentials (lmaxx) =  3

     Subspace diagonalization in iterative solution of the eigenvalue problem:
     a serial algorithm will be used


     Parallelization info
     --------------------
     sticks:   dense  smooth     PW     G-vecs:    dense   smooth      PW
     Min         219     109     37                 4315     1545     301
     Max         220     110     38                 4316     1546     304
     Sum         877     439    151                17261     6183    1211



     bravais-lattice index     =            2
     lattice parameter (alat)  =      10.3320  a.u.
     unit-cell volume          =     275.7358 (a.u.)^3
     number of atoms/cell      =            2
     number of atomic types    =            1
     number of electrons       =         8.00
     number of Kohn-Sham states=            4
     kinetic-energy cutoff     =      30.0000  Ry
     charge density cutoff     =     240.0000  Ry
     convergence threshold     =      1.0E-08
     mixing beta               =       0.7000
     number of iterations used =            8  plain     mixing
     Exchange-correlation      = SLA  PW   PBE  PBE ( 1  4  3  4 0 0)

     celldm(1)=  10.332000  celldm(2)=   0.000000  celldm(3)=   0.000000
     celldm(4)=   0.000000  celldm(5)=   0.000000  celldm(6)=   0.000000

     crystal axes: (cart. coord. in units of alat)
               a(1) = (  -0.500000   0.000000   0.500000 )  
               a(2) = (   0.000000   0.500000   0.500000 )  
               a(3) = (  -0.500000   0.500000   0.000000 )  

     reciprocal axes: (cart. coord. in units 2 pi/alat)
               b(1) = ( -1.000000 -1.000000  1.000000 )  
               b(2) = (  1.000000  1.000000  1.000000 )  
               b(3) = ( -1.000000  1.000000 -1.000000 )  


     PseudoPot. # 1 for Si read from file:
     /home/max/quantum_espresso/qe-6.1/pseudo/si_pbe_v1.uspp.F.UPF.txt
     MD5 check sum: a056efeee980c13900f22a371efd63c1
     Pseudo is Ultrasoft + core correction, Zval =  4.0
     Generated by new atomic code, or converted to UPF format
     Using radial grid of  899 points,  6 beta functions with: 
                l(1) =   0
                l(2) =   0
                l(3) =   1
                l(4) =   1
                l(5) =   2
                l(6) =   2
     Q(r) pseudized with  8 coefficients,  rinner =    0.900   0.900   0.900
                                                       0.900   0.900

     atomic species   valence    mass     pseudopotential
        Si             4.00    28.08600     Si( 1.00)

     48 Sym. Ops., with inversion, found (24 have fractional translation)



   Cartesian axes

     site n.     atom                  positions (alat units)
         1           Si  tau(   1) = (   0.0000000   0.0000000   0.0000000  )
         2           Si  tau(   2) = (   0.2500000   0.2500000   0.2500000  )

     number of k points=    28
                       cart. coord. in units 2pi/alat
        k(    1) = (  -0.0833333   0.0833333   0.0833333), wk =   0.0185185
        k(    2) = (  -0.2500000   0.2500000  -0.0833333), wk =   0.0555556
        k(    3) = (  -0.4166667   0.4166667  -0.2500000), wk =   0.0555556
        k(    4) = (   0.4166667  -0.4166667   0.5833333), wk =   0.0555556
        k(    5) = (   0.2500000  -0.2500000   0.4166667), wk =   0.0555556
        k(    6) = (   0.0833333  -0.0833333   0.2500000), wk =   0.0555556
        k(    7) = (  -0.0833333   0.4166667   0.0833333), wk =   0.0555556
        k(    8) = (  -0.2500000   0.5833333  -0.0833333), wk =   0.1111111
        k(    9) = (   0.5833333  -0.2500000   0.7500000), wk =   0.1111111
        k(   10) = (   0.4166667  -0.0833333   0.5833333), wk =   0.1111111
        k(   11) = (   0.2500000   0.0833333   0.4166667), wk =   0.1111111
        k(   12) = (  -0.0833333   0.7500000   0.0833333), wk =   0.0555556
        k(   13) = (   0.7500000  -0.0833333   0.9166667), wk =   0.1111111
        k(   14) = (   0.5833333   0.0833333   0.7500000), wk =   0.1111111
        k(   15) = (   0.4166667   0.2500000   0.5833333), wk =   0.1111111
        k(   16) = (  -0.0833333  -0.9166667   0.0833333), wk =   0.0555556
        k(   17) = (  -0.2500000  -0.7500000  -0.0833333), wk =   0.1111111
        k(   18) = (  -0.0833333  -0.5833333   0.0833333), wk =   0.0555556
        k(   19) = (  -0.2500000   0.2500000   0.2500000), wk =   0.0185185
        k(   20) = (  -0.4166667   0.4166667   0.0833333), wk =   0.0555556
        k(   21) = (   0.4166667  -0.4166667   0.9166667), wk =   0.0555556
        k(   22) = (   0.2500000  -0.2500000   0.7500000), wk =   0.0555556
        k(   23) = (  -0.2500000   0.5833333   0.2500000), wk =   0.0555556
        k(   24) = (   0.5833333  -0.2500000   1.0833333), wk =   0.1111111
        k(   25) = (   0.4166667  -0.0833333   0.9166667), wk =   0.1111111
        k(   26) = (  -0.2500000  -1.0833333   0.2500000), wk =   0.0555556
        k(   27) = (  -0.4166667   0.4166667   0.4166667), wk =   0.0185185
        k(   28) = (   0.4166667  -0.4166667   1.2500000), wk =   0.0555556

     Dense  grid:    17261 G-vectors     FFT dimensions: (  40,  40,  40)

     Smooth grid:     6183 G-vectors     FFT dimensions: (  25,  25,  25)

     Estimated max dynamical RAM per process >       3.35MB

     Estimated total allocated dynamical RAM >      13.41MB

     Initial potential from superposition of free atoms

     starting charge    7.99866, renormalised to    8.00000
     Starting wfc are    8 randomized atomic wfcs

     total cpu time spent up to now is        0.5 secs

     per-process dynamical memory:     9.8 Mb

     Self-consistent Calculation

     iteration #  1     ecut=    30.00 Ry     beta=0.70
     Davidson diagonalization with overlap
     ethr =  1.00E-02,  avg # of iterations =  2.0

     Threshold (ethr) on eigenvalues was too large:
     Diagonalizing with lowered threshold

     Davidson diagonalization with overlap
     ethr =  6.77E-04,  avg # of iterations =  1.0

     total cpu time spent up to now is        0.9 secs

     total energy              =     -19.19123732 Ry
     Harris-Foulkes estimate   =     -19.20370062 Ry
     estimated scf accuracy    <       0.05367611 Ry

     iteration #  2     ecut=    30.00 Ry     beta=0.70
     Davidson diagonalization with overlap
     ethr =  6.71E-04,  avg # of iterations =  1.0

     total cpu time spent up to now is        1.1 secs

     total energy              =     -19.19299787 Ry
     Harris-Foulkes estimate   =     -19.19316696 Ry
     estimated scf accuracy    <       0.00244868 Ry

     iteration #  3     ecut=    30.00 Ry     beta=0.70
     Davidson diagonalization with overlap
     ethr =  3.06E-05,  avg # of iterations =  2.1

     total cpu time spent up to now is        1.5 secs

     total energy              =     -19.19333066 Ry
     Harris-Foulkes estimate   =     -19.19334361 Ry
     estimated scf accuracy    <       0.00004219 Ry

     iteration #  4     ecut=    30.00 Ry     beta=0.70
     Davidson diagonalization with overlap
     ethr =  5.27E-07,  avg # of iterations =  3.4

     total cpu time spent up to now is        2.3 secs

     total energy              =     -19.19336930 Ry
     Harris-Foulkes estimate   =     -19.19337015 Ry
     estimated scf accuracy    <       0.00000310 Ry

     iteration #  5     ecut=    30.00 Ry     beta=0.70
     Davidson diagonalization with overlap
     ethr =  3.87E-08,  avg # of iterations =  2.0

     total cpu time spent up to now is        2.5 secs

     End of self-consistent calculation

          k =-0.0833 0.0833 0.0833 (   749 PWs)   bands (ev):

    -5.7480   5.1245   5.8425   5.8425

          k =-0.2500 0.2500-0.0833 (   770 PWs)   bands (ev):

    -5.2783   3.0579   4.6252   5.6332

          k =-0.4167 0.4167-0.2500 (   768 PWs)   bands (ev):

    -4.2038   0.3325   4.1624   5.0046

          k = 0.4167-0.4167 0.5833 (   767 PWs)   bands (ev):

    -3.5202  -0.7916   4.2253   4.6301

          k = 0.2500-0.2500 0.4167 (   772 PWs)   bands (ev):

    -4.6084   1.1669   4.6911   4.7178

          k = 0.0833-0.0833 0.2500 (   775 PWs)   bands (ev):

    -5.5109   4.0584   5.2073   5.3857

          k =-0.0833 0.4167 0.0833 (   775 PWs)   bands (ev):

    -5.0406   2.8614   4.4690   4.4878

          k =-0.2500 0.5833-0.0833 (   770 PWs)   bands (ev):

    -4.1441   1.0415   3.1726   4.1054

          k = 0.5833-0.2500 0.7500 (   759 PWs)   bands (ev):

    -3.0492  -0.6770   2.5749   3.8829

          k = 0.4167-0.0833 0.5833 (   768 PWs)   bands (ev):

    -3.7566   0.3604   2.5392   4.3605

          k = 0.2500 0.0833 0.4167 (   771 PWs)   bands (ev):

    -4.8187   2.0399   3.8591   5.0163

          k =-0.0833 0.7500 0.0833 (   769 PWs)   bands (ev):

    -3.4424   0.2165   3.1397   3.4724

          k = 0.7500-0.0833 0.9167 (   758 PWs)   bands (ev):

    -2.2659  -1.1064   2.3141   3.0743

          k = 0.5833 0.0833 0.7500 (   759 PWs)   bands (ev):

    -2.6351  -0.7684   1.8370   3.6112

          k = 0.4167 0.2500 0.5833 (   768 PWs)   bands (ev):

    -3.6481  -0.3033   3.4593   4.4560

          k =-0.0833-0.9167 0.0833 (   764 PWs)   bands (ev):

    -2.3544  -1.1135   2.8743   3.2598

          k =-0.2500-0.7500-0.0833 (   765 PWs)   bands (ev):

    -3.2773  -0.0025   2.6279   3.4099

          k =-0.0833-0.5833 0.0833 (   767 PWs)   bands (ev):

    -4.3460   1.5677   3.6751   3.8893

          k =-0.2500 0.2500 0.2500 (   769 PWs)   bands (ev):

    -5.0523   2.0939   5.2365   5.2365

          k =-0.4167 0.4167 0.0833 (   767 PWs)   bands (ev):

    -4.3837   1.1621   3.1367   5.0683

          k = 0.4167-0.4167 0.9167 (   769 PWs)   bands (ev):

    -3.2249  -0.2659   2.0487   4.2946

          k = 0.2500-0.2500 0.7500 (   763 PWs)   bands (ev):

    -3.1726  -0.3445   2.5176   3.8203

          k =-0.2500 0.5833 0.2500 (   771 PWs)   bands (ev):

    -3.9666   0.3673   3.5875   4.1882

          k = 0.5833-0.2500 1.0833 (   761 PWs)   bands (ev):

    -2.9809  -0.3833   2.1482   3.4093

          k = 0.4167-0.0833 0.9167 (   755 PWs)   bands (ev):

    -2.1634  -1.1141   1.9908   2.7537

          k =-0.2500-1.0833 0.2500 (   758 PWs)   bands (ev):

    -2.3713  -1.0171   1.8664   3.6285

          k =-0.4167 0.4167 0.4167 (   769 PWs)   bands (ev):

    -3.8815  -0.3976   4.8516   4.8516

          k = 0.4167-0.4167 1.2500 (   768 PWs)   bands (ev):

    -3.2877  -0.7001   3.0407   4.4192

     highest occupied level (ev):     5.8425

!    total energy              =     -19.19336971 Ry
     Harris-Foulkes estimate   =     -19.19336970 Ry
     estimated scf accuracy    <          9.3E-09 Ry

     The total energy is the sum of the following terms:

     one-electron contribution =       4.95417670 Ry
     hartree contribution      =       1.13347336 Ry
     xc contribution           =      -8.59716984 Ry
     ewald contribution        =     -16.68384993 Ry

     convergence has been achieved in   5 iterations

     Writing output data file silicon.10.332.save

     init_run     :      0.34s CPU      0.40s WALL (       1 calls)
     electrons    :      1.37s CPU      2.05s WALL (       1 calls)

     Called by init_run:
     wfcinit      :      0.07s CPU      0.09s WALL (       1 calls)
     potinit      :      0.03s CPU      0.03s WALL (       1 calls)

     Called by electrons:
     c_bands      :      0.82s CPU      1.38s WALL (       6 calls)
     sum_band     :      0.32s CPU      0.37s WALL (       6 calls)
     v_of_rho     :      0.12s CPU      0.15s WALL (       6 calls)
     newd         :      0.13s CPU      0.16s WALL (       6 calls)
     mix_rho      :      0.01s CPU      0.01s WALL (       6 calls)

     Called by c_bands:
     init_us_2    :      0.05s CPU      0.05s WALL (     364 calls)
     cegterg      :      0.70s CPU      1.20s WALL (     168 calls)

     Called by sum_band:
     sum_band:bec :      0.00s CPU      0.00s WALL (     168 calls)
     addusdens    :      0.15s CPU      0.17s WALL (       6 calls)

     Called by *egterg:
     h_psi        :      0.59s CPU      0.96s WALL (     519 calls)
     s_psi        :      0.04s CPU      0.05s WALL (     519 calls)
     g_psi        :      0.00s CPU      0.00s WALL (     323 calls)
     cdiaghg      :      0.04s CPU      0.08s WALL (     463 calls)

     Called by h_psi:
     h_psi:pot    :      0.59s CPU      0.95s WALL (     519 calls)
     h_psi:calbec :      0.06s CPU      0.12s WALL (     519 calls)
     vloc_psi     :      0.48s CPU      0.78s WALL (     519 calls)
     add_vuspsi   :      0.04s CPU      0.05s WALL (     519 calls)

     General routines
     calbec       :      0.08s CPU      0.14s WALL (     687 calls)
     fft          :      0.09s CPU      0.14s WALL (      96 calls)
     ffts         :      0.00s CPU      0.00s WALL (      12 calls)
     fftw         :      0.49s CPU      0.79s WALL (    4612 calls)
     interpolate  :      0.01s CPU      0.01s WALL (      12 calls)
     davcio       :      0.00s CPU      0.00s WALL (      28 calls)

     Parallel routines
     fft_scatter  :      0.30s CPU      0.60s WALL (    4720 calls)

     PWSCF        :     1.93s CPU         2.67s WALL


   This run was terminated on:  10:31:29  10Nov2017            

=------------------------------------------------------------------------------=
   JOB DONE.
=------------------------------------------------------------------------------=
