
     Program PHONON v.6.1 (svn rev. 13369) starts on  9Nov2017 at 12: 8:46 

     This program is part of the open-source Quantum ESPRESSO suite
     for quantum simulation of materials; please cite
         "P. Giannozzi et al., J. Phys.:Condens. Matter 21 395502 (2009);
          URL http://www.quantum-espresso.org", 
     in publications or presentations arising from this work. More details at
     http://www.quantum-espresso.org/quote

     Parallel version (MPI), running on     4 processors
     R & G space division:  proc/nbgrp/npool/nimage =       4

     Reading data from directory:
     ./silicon.10.325.save

   Info: using nr1, nr2, nr3 values from input

   Info: using nr1, nr2, nr3 values from input

     IMPORTANT: XC functional enforced from input :
     Exchange-correlation      = SLA  PW   PBE  PBE ( 1  4  3  4 0 0)
     Any further DFT definition will be discarded
     Please, verify this is what you really want


     Parallelization info
     --------------------
     sticks:   dense  smooth     PW     G-vecs:    dense   smooth      PW
     Min          63      63     22                  684      684     140
     Max          64      64     23                  688      688     141
     Sum         253     253     91                 2741     2741     561


     Check: negative/imaginary core charge=   -0.000005    0.000000


     Dynamical matrices for ( 4, 4, 4)  uniform grid of q-points
     (   8q-points):
       N         xq(1)         xq(2)         xq(3) 
       1   0.000000000   0.000000000   0.000000000
       2  -0.250000000   0.250000000  -0.250000000
       3   0.500000000  -0.500000000   0.500000000
       4   0.000000000   0.500000000   0.000000000
       5   0.750000000  -0.250000000   0.750000000
       6   0.500000000   0.000000000   0.500000000
       7   0.000000000  -1.000000000   0.000000000
       8  -0.500000000  -1.000000000   0.000000000

     Calculation of q =    0.0000000   0.0000000   0.0000000

                                                                                

     bravais-lattice index     =            2
     lattice parameter (alat)  =      10.3250  a.u.
     unit-cell volume          =     275.1758 (a.u.)^3
     number of atoms/cell      =            2
     number of atomic types    =            1
     kinetic-energy cut-off    =      18.0000  Ry
     charge density cut-off    =      72.0000  Ry
     convergence threshold     =      1.0E-12
     beta                      =       0.7000
     number of iterations used =            4
     Exchange-correlation      = SLA  PW   PBE  PBE ( 1  4  3  4 0 0)


     celldm(1)=   10.32500  celldm(2)=    0.00000  celldm(3)=    0.00000
     celldm(4)=    0.00000  celldm(5)=    0.00000  celldm(6)=    0.00000

     crystal axes: (cart. coord. in units of alat)
               a(1) = ( -0.5000  0.0000  0.5000 )  
               a(2) = (  0.0000  0.5000  0.5000 )  
               a(3) = ( -0.5000  0.5000  0.0000 )  

     reciprocal axes: (cart. coord. in units 2 pi/alat)
               b(1) = ( -1.0000 -1.0000  1.0000 )  
               b(2) = (  1.0000  1.0000  1.0000 )  
               b(3) = ( -1.0000  1.0000 -1.0000 )  


     Atoms inside the unit cell: 

     Cartesian axes

     site n.  atom      mass           positions (alat units)
        1     Si  28.0860   tau(    1) = (    0.00000    0.00000    0.00000  )
        2     Si  28.0860   tau(    2) = (    0.25000    0.25000    0.25000  )

     Computing dynamical matrix for 
                    q = (   0.0000000   0.0000000   0.0000000 )

     49 Sym.Ops. (with q -> -q+G )


     G cutoff =  194.4253  (    685 G-vectors)     FFT grid: ( 20, 20, 20)
     number of k points=    10

     PseudoPot. # 1 for Si read from file:
     /home/max/quantum_espresso/qe-6.1/pseudo/si_pbe_v1.uspp.F.UPF.txt
     MD5 check sum: a056efeee980c13900f22a371efd63c1
     Pseudo is Ultrasoft + core correction, Zval =  4.0
     Generated by new atomic code, or converted to UPF format
     Using radial grid of  899 points,  6 beta functions with: 
                l(1) =   0
                l(2) =   0
                l(3) =   1
                l(4) =   1
                l(5) =   2
                l(6) =   2
     Q(r) pseudized with  8 coefficients,  rinner =    0.900   0.900   0.900
                                                       0.900   0.900

     Mode symmetry, O_h (m-3m)  point group:


     Electric field:
     Dielectric constant
     Born effective charges in two ways 


     Atomic displacements:
     There are   2 irreducible representations

     Representation     1      3 modes -T_2g G_25' G_5+  To be done

     Representation     2      3 modes -T_1u G_15  G_4-  To be done



     Alpha used in Ewald sum =   0.7000
     PHONON       :     0.41s CPU         0.43s WALL


     Electric Fields Calculation

      iter #   1 total cpu time :     0.9 secs   av.it.:   5.6
      thresh= 1.000E-02 alpha_mix =  0.700 |ddv_scf|^2 =  9.055E-07

      iter #   2 total cpu time :     1.3 secs   av.it.:   9.9
      thresh= 9.516E-05 alpha_mix =  0.700 |ddv_scf|^2 =  5.561E-08

      iter #   3 total cpu time :     1.5 secs   av.it.:   9.8
      thresh= 2.358E-05 alpha_mix =  0.700 |ddv_scf|^2 =  4.222E-09

      iter #   4 total cpu time :     1.7 secs   av.it.:   9.0
      thresh= 6.498E-06 alpha_mix =  0.700 |ddv_scf|^2 =  2.479E-11

      iter #   5 total cpu time :     1.9 secs   av.it.:   9.1
      thresh= 4.979E-07 alpha_mix =  0.700 |ddv_scf|^2 =  1.321E-14

     End of electric fields calculation

          Dielectric constant in cartesian axis 

          (      13.854158753       0.000000000       0.000000000 )
          (       0.000000000      13.854158753       0.000000000 )
          (       0.000000000       0.000000000      13.854158753 )

          Effective charges (d Force / dE) in cartesian axis

           atom      1   Si 
      Ex  (       -0.03121        0.00000        0.00000 )
      Ey  (        0.00000       -0.03121        0.00000 )
      Ez  (       -0.00000        0.00000       -0.03121 )
           atom      2   Si 
      Ex  (       -0.03121       -0.00000       -0.00000 )
      Ey  (       -0.00000       -0.03121        0.00000 )
      Ez  (       -0.00000        0.00000       -0.03121 )


     Representation #  1 modes #   1  2  3

     Self-consistent Calculation

      iter #   1 total cpu time :     2.3 secs   av.it.:   4.9
      thresh= 1.000E-02 alpha_mix =  0.700 |ddv_scf|^2 =  2.243E-07

      iter #   2 total cpu time :     2.5 secs   av.it.:   9.7
      thresh= 4.736E-05 alpha_mix =  0.700 |ddv_scf|^2 =  1.386E-08

      iter #   3 total cpu time :     2.7 secs   av.it.:   9.3
      thresh= 1.177E-05 alpha_mix =  0.700 |ddv_scf|^2 =  8.560E-10

      iter #   4 total cpu time :     3.0 secs   av.it.:   9.0
      thresh= 2.926E-06 alpha_mix =  0.700 |ddv_scf|^2 =  1.880E-12

      iter #   5 total cpu time :     3.3 secs   av.it.:   9.4
      thresh= 1.371E-07 alpha_mix =  0.700 |ddv_scf|^2 =  1.226E-14

     End of self-consistent calculation

     Convergence has been achieved 


     Representation #  2 modes #   4  5  6

     Self-consistent Calculation

      iter #   1 total cpu time :     3.6 secs   av.it.:   5.0
      thresh= 1.000E-02 alpha_mix =  0.700 |ddv_scf|^2 =  1.703E-07

      iter #   2 total cpu time :     3.8 secs   av.it.:   9.6
      thresh= 4.127E-05 alpha_mix =  0.700 |ddv_scf|^2 =  1.327E-08

      iter #   3 total cpu time :     4.0 secs   av.it.:   9.3
      thresh= 1.152E-05 alpha_mix =  0.700 |ddv_scf|^2 =  8.458E-10

      iter #   4 total cpu time :     4.2 secs   av.it.:   9.5
      thresh= 2.908E-06 alpha_mix =  0.700 |ddv_scf|^2 =  5.069E-12

      iter #   5 total cpu time :     4.4 secs   av.it.:   9.0
      thresh= 2.252E-07 alpha_mix =  0.700 |ddv_scf|^2 =  4.414E-15

     End of self-consistent calculation

     Convergence has been achieved 

     Number of q in the star =    1
     List of q in the star:
          1   0.000000000   0.000000000   0.000000000

          Dielectric constant in cartesian axis 

          (      13.854158753       0.000000000       0.000000000 )
          (       0.000000000      13.854158753       0.000000000 )
          (       0.000000000       0.000000000      13.854158753 )

          Effective charges (d Force / dE) in cartesian axis

           atom      1   Si 
      Ex  (       -0.03121        0.00000        0.00000 )
      Ey  (        0.00000       -0.03121        0.00000 )
      Ez  (       -0.00000        0.00000       -0.03121 )
           atom      2   Si 
      Ex  (       -0.03121       -0.00000       -0.00000 )
      Ey  (       -0.00000       -0.03121        0.00000 )
      Ez  (       -0.00000        0.00000       -0.03121 )

          Effective charges (d P / du) in cartesian axis 

           atom      1   Si 
      Px  (       -0.07222       -0.00000       -0.00000 )
      Py  (       -0.00000       -0.07222        0.00000 )
      Pz  (       -0.00000       -0.00000       -0.07222 )
           atom      2   Si 
      Px  (       -0.07222        0.00000       -0.00000 )
      Py  (       -0.00000       -0.07222       -0.00000 )
      Pz  (       -0.00000        0.00000       -0.07222 )

     Diagonalizing the dynamical matrix

     q = (    0.000000000   0.000000000   0.000000000 ) 

 **************************************************************************
     freq (    1) =       1.944991 [THz] =      64.877933 [cm-1]
     freq (    2) =       1.944991 [THz] =      64.877933 [cm-1]
     freq (    3) =       1.944991 [THz] =      64.877933 [cm-1]
     freq (    4) =      15.050018 [THz] =     502.014577 [cm-1]
     freq (    5) =      15.050018 [THz] =     502.014577 [cm-1]
     freq (    6) =      15.050018 [THz] =     502.014577 [cm-1]
 **************************************************************************

     Mode symmetry, O_h (m-3m)  point group:

     freq (  1 -  3) =         64.9  [cm-1]   --> T_1u G_15  G_4- I  
     freq (  4 -  6) =        502.0  [cm-1]   --> T_2g G_25' G_5+ R  

     Calculation of q =   -0.2500000   0.2500000  -0.2500000

   Info: using nr1, nr2, nr3 values from input

   Info: using nr1, nr2, nr3 values from input

     Parallelization info
     --------------------
     sticks:   dense  smooth     PW     G-vecs:    dense   smooth      PW
     Min          63      63     24                  684      684     161
     Max          64      64     25                  688      688     162
     Sum         253     253     97                 2741     2741     645



     bravais-lattice index     =            2
     lattice parameter (alat)  =      10.3250  a.u.
     unit-cell volume          =     275.1758 (a.u.)^3
     number of atoms/cell      =            2
     number of atomic types    =            1
     number of electrons       =         8.00
     number of Kohn-Sham states=            4
     kinetic-energy cutoff     =      18.0000  Ry
     charge density cutoff     =      72.0000  Ry
     Exchange-correlation      = SLA  PW   PBE  PBE ( 1  4  3  4 0 0)

     celldm(1)=  10.325000  celldm(2)=   0.000000  celldm(3)=   0.000000
     celldm(4)=   0.000000  celldm(5)=   0.000000  celldm(6)=   0.000000

     crystal axes: (cart. coord. in units of alat)
               a(1) = (  -0.500000   0.000000   0.500000 )  
               a(2) = (   0.000000   0.500000   0.500000 )  
               a(3) = (  -0.500000   0.500000   0.000000 )  

     reciprocal axes: (cart. coord. in units 2 pi/alat)
               b(1) = ( -1.000000 -1.000000  1.000000 )  
               b(2) = (  1.000000  1.000000  1.000000 )  
               b(3) = ( -1.000000  1.000000 -1.000000 )  


     PseudoPot. # 1 for Si read from file:
     /home/max/quantum_espresso/qe-6.1/pseudo/si_pbe_v1.uspp.F.UPF.txt
     MD5 check sum: a056efeee980c13900f22a371efd63c1
     Pseudo is Ultrasoft + core correction, Zval =  4.0
     Generated by new atomic code, or converted to UPF format
     Using radial grid of  899 points,  6 beta functions with: 
                l(1) =   0
                l(2) =   0
                l(3) =   1
                l(4) =   1
                l(5) =   2
                l(6) =   2
     Q(r) pseudized with  8 coefficients,  rinner =    0.900   0.900   0.900
                                                       0.900   0.900

     atomic species   valence    mass     pseudopotential
        Si             4.00    28.08600     Si( 1.00)

     48 Sym. Ops., with inversion, found



   Cartesian axes

     site n.     atom                  positions (alat units)
         1           Si  tau(   1) = (   0.0000000   0.0000000   0.0000000  )
         2           Si  tau(   2) = (   0.2500000   0.2500000   0.2500000  )

     number of k points=   120

     Number of k-points >= 100: set verbosity='high' to print them.

     Dense  grid:     2741 G-vectors     FFT dimensions: (  20,  20,  20)

     Estimated max dynamical RAM per process >       0.33MB

     Estimated total allocated dynamical RAM >       1.30MB

     Check: negative/imaginary core charge=   -0.000005    0.000000

     The potential is recalculated from file :
     ./_ph0/silicon.10.325.save/charge-density.dat

     Starting wfc are    8 atomic wfcs

     Band Structure Calculation
     Davidson diagonalization with overlap

     ethr =  1.25E-10,  avg # of iterations = 11.7

     total cpu time spent up to now is        1.1 secs

     End of band structure calculation

     Number of k-points >= 100: set verbosity='high' to print the bands.

     highest occupied level (ev):     5.7248

     Writing output data file silicon.10.325.save

                                                                                

     bravais-lattice index     =            2
     lattice parameter (alat)  =      10.3250  a.u.
     unit-cell volume          =     275.1758 (a.u.)^3
     number of atoms/cell      =            2
     number of atomic types    =            1
     kinetic-energy cut-off    =      18.0000  Ry
     charge density cut-off    =      72.0000  Ry
     convergence threshold     =      1.0E-12
     beta                      =       0.7000
     number of iterations used =            4
     Exchange-correlation      = SLA  PW   PBE  PBE ( 1  4  3  4 0 0)


     celldm(1)=   10.32500  celldm(2)=    0.00000  celldm(3)=    0.00000
     celldm(4)=    0.00000  celldm(5)=    0.00000  celldm(6)=    0.00000

     crystal axes: (cart. coord. in units of alat)
               a(1) = ( -0.5000  0.0000  0.5000 )  
               a(2) = (  0.0000  0.5000  0.5000 )  
               a(3) = ( -0.5000  0.5000  0.0000 )  

     reciprocal axes: (cart. coord. in units 2 pi/alat)
               b(1) = ( -1.0000 -1.0000  1.0000 )  
               b(2) = (  1.0000  1.0000  1.0000 )  
               b(3) = ( -1.0000  1.0000 -1.0000 )  


     Atoms inside the unit cell: 

     Cartesian axes

     site n.  atom      mass           positions (alat units)
        1     Si  28.0860   tau(    1) = (    0.00000    0.00000    0.00000  )
        2     Si  28.0860   tau(    2) = (    0.25000    0.25000    0.25000  )

     Computing dynamical matrix for 
                    q = (  -0.2500000   0.2500000  -0.2500000 )

      6 Sym.Ops. (no q -> -q+G )


     G cutoff =  194.4253  (    685 G-vectors)     FFT grid: ( 20, 20, 20)
     number of k points=   120

     PseudoPot. # 1 for Si read from file:
     /home/max/quantum_espresso/qe-6.1/pseudo/si_pbe_v1.uspp.F.UPF.txt
     MD5 check sum: a056efeee980c13900f22a371efd63c1
     Pseudo is Ultrasoft + core correction, Zval =  4.0
     Generated by new atomic code, or converted to UPF format
     Using radial grid of  899 points,  6 beta functions with: 
                l(1) =   0
                l(2) =   0
                l(3) =   1
                l(4) =   1
                l(5) =   2
                l(6) =   2
     Q(r) pseudized with  8 coefficients,  rinner =    0.900   0.900   0.900
                                                       0.900   0.900

     Mode symmetry, C_3v (3m)   point group:


     Atomic displacements:
     There are   4 irreducible representations

     Representation     1      1 modes -A_1  L_1  To be done

     Representation     2      1 modes -A_1  L_1  To be done

     Representation     3      2 modes -E    L_3  To be done

     Representation     4      2 modes -E    L_3  To be done



     Alpha used in Ewald sum =   0.7000
     PHONON       :     5.55s CPU         6.05s WALL



     Representation #  1 mode #   1

     Self-consistent Calculation

      iter #   1 total cpu time :     6.3 secs   av.it.:   5.5
      thresh= 1.000E-02 alpha_mix =  0.700 |ddv_scf|^2 =  2.476E-03

      iter #   2 total cpu time :     6.6 secs   av.it.:   7.5
      thresh= 4.976E-03 alpha_mix =  0.700 |ddv_scf|^2 =  3.734E-02

      iter #   3 total cpu time :     6.8 secs   av.it.:   6.3
      thresh= 1.000E-02 alpha_mix =  0.700 |ddv_scf|^2 =  1.712E-06

      iter #   4 total cpu time :     7.4 secs   av.it.:   8.2
      thresh= 1.309E-04 alpha_mix =  0.700 |ddv_scf|^2 =  1.145E-07

      iter #   5 total cpu time :     7.7 secs   av.it.:   8.1
      thresh= 3.383E-05 alpha_mix =  0.700 |ddv_scf|^2 =  4.387E-09

      iter #   6 total cpu time :     8.0 secs   av.it.:   8.0
      thresh= 6.624E-06 alpha_mix =  0.700 |ddv_scf|^2 =  4.776E-09

      iter #   7 total cpu time :     8.2 secs   av.it.:   6.0
      thresh= 6.911E-06 alpha_mix =  0.700 |ddv_scf|^2 =  4.061E-10

      iter #   8 total cpu time :     8.5 secs   av.it.:   7.3
      thresh= 2.015E-06 alpha_mix =  0.700 |ddv_scf|^2 =  4.000E-12

      iter #   9 total cpu time :     8.8 secs   av.it.:   7.2
      thresh= 2.000E-07 alpha_mix =  0.700 |ddv_scf|^2 =  1.451E-13

     End of self-consistent calculation

     Convergence has been achieved 


     Representation #  2 mode #   2

     Self-consistent Calculation

      iter #   1 total cpu time :     9.2 secs   av.it.:   5.5
      thresh= 1.000E-02 alpha_mix =  0.700 |ddv_scf|^2 =  2.476E-03

      iter #   2 total cpu time :     9.5 secs   av.it.:   7.5
      thresh= 4.976E-03 alpha_mix =  0.700 |ddv_scf|^2 =  3.734E-02

      iter #   3 total cpu time :     9.7 secs   av.it.:   6.3
      thresh= 1.000E-02 alpha_mix =  0.700 |ddv_scf|^2 =  1.712E-06

      iter #   4 total cpu time :    10.0 secs   av.it.:   8.2
      thresh= 1.309E-04 alpha_mix =  0.700 |ddv_scf|^2 =  1.145E-07

      iter #   5 total cpu time :    10.3 secs   av.it.:   8.1
      thresh= 3.383E-05 alpha_mix =  0.700 |ddv_scf|^2 =  4.387E-09

      iter #   6 total cpu time :    10.6 secs   av.it.:   8.0
      thresh= 6.624E-06 alpha_mix =  0.700 |ddv_scf|^2 =  4.776E-09

      iter #   7 total cpu time :    10.8 secs   av.it.:   6.0
      thresh= 6.911E-06 alpha_mix =  0.700 |ddv_scf|^2 =  4.061E-10

      iter #   8 total cpu time :    11.3 secs   av.it.:   7.3
      thresh= 2.015E-06 alpha_mix =  0.700 |ddv_scf|^2 =  4.000E-12

      iter #   9 total cpu time :    11.6 secs   av.it.:   7.2
      thresh= 2.000E-07 alpha_mix =  0.700 |ddv_scf|^2 =  1.451E-13

     End of self-consistent calculation

     Convergence has been achieved 


     Representation #  3 modes #   3  4

     Self-consistent Calculation

      iter #   1 total cpu time :    12.0 secs   av.it.:   5.0
      thresh= 1.000E-02 alpha_mix =  0.700 |ddv_scf|^2 =  5.550E-07

      iter #   2 total cpu time :    12.7 secs   av.it.:   9.5
      thresh= 7.450E-05 alpha_mix =  0.700 |ddv_scf|^2 =  4.093E-08

      iter #   3 total cpu time :    13.5 secs   av.it.:   9.2
      thresh= 2.023E-05 alpha_mix =  0.700 |ddv_scf|^2 =  3.511E-09

      iter #   4 total cpu time :    14.1 secs   av.it.:   9.0
      thresh= 5.925E-06 alpha_mix =  0.700 |ddv_scf|^2 =  1.081E-11

      iter #   5 total cpu time :    14.8 secs   av.it.:   9.2
      thresh= 3.288E-07 alpha_mix =  0.700 |ddv_scf|^2 =  4.933E-13

     End of self-consistent calculation

     Convergence has been achieved 


     Representation #  4 modes #   5  6

     Self-consistent Calculation

      iter #   1 total cpu time :    15.5 secs   av.it.:   5.0
      thresh= 1.000E-02 alpha_mix =  0.700 |ddv_scf|^2 =  5.548E-07

      iter #   2 total cpu time :    16.2 secs   av.it.:   9.6
      thresh= 7.449E-05 alpha_mix =  0.700 |ddv_scf|^2 =  4.089E-08

      iter #   3 total cpu time :    16.8 secs   av.it.:   9.4
      thresh= 2.022E-05 alpha_mix =  0.700 |ddv_scf|^2 =  3.508E-09

      iter #   4 total cpu time :    17.7 secs   av.it.:   9.1
      thresh= 5.923E-06 alpha_mix =  0.700 |ddv_scf|^2 =  1.081E-11

      iter #   5 total cpu time :    18.3 secs   av.it.:   9.2
      thresh= 3.288E-07 alpha_mix =  0.700 |ddv_scf|^2 =  4.935E-13

     End of self-consistent calculation

     Convergence has been achieved 

     Number of q in the star =    8
     List of q in the star:
          1  -0.250000000   0.250000000  -0.250000000
          2   0.250000000  -0.250000000  -0.250000000
          3   0.250000000  -0.250000000   0.250000000
          4   0.250000000   0.250000000   0.250000000
          5  -0.250000000  -0.250000000  -0.250000000
          6  -0.250000000  -0.250000000   0.250000000
          7  -0.250000000   0.250000000   0.250000000
          8   0.250000000   0.250000000  -0.250000000

     Diagonalizing the dynamical matrix

     q = (   -0.250000000   0.250000000  -0.250000000 ) 

 **************************************************************************
     freq (    1) =       3.386101 [THz] =     112.948156 [cm-1]
     freq (    2) =       3.386101 [THz] =     112.948156 [cm-1]
     freq (    3) =       6.950650 [THz] =     231.848725 [cm-1]
     freq (    4) =      14.123110 [THz] =     471.096243 [cm-1]
     freq (    5) =      14.439288 [THz] =     481.642807 [cm-1]
     freq (    6) =      14.439288 [THz] =     481.642807 [cm-1]
 **************************************************************************

     Mode symmetry, C_3v (3m)   point group:

     freq (  1 -  2) =        112.9  [cm-1]   --> E    L_3           
     freq (  3 -  3) =        231.8  [cm-1]   --> A_1  L_1           
     freq (  4 -  4) =        471.1  [cm-1]   --> A_1  L_1           
     freq (  5 -  6) =        481.6  [cm-1]   --> E    L_3           

     Calculation of q =    0.5000000  -0.5000000   0.5000000

   Info: using nr1, nr2, nr3 values from input

   Info: using nr1, nr2, nr3 values from input

     Parallelization info
     --------------------
     sticks:   dense  smooth     PW     G-vecs:    dense   smooth      PW
     Min          63      63     27                  684      684     186
     Max          64      64     28                  688      688     189
     Sum         253     253    109                 2741     2741     749



     bravais-lattice index     =            2
     lattice parameter (alat)  =      10.3250  a.u.
     unit-cell volume          =     275.1758 (a.u.)^3
     number of atoms/cell      =            2
     number of atomic types    =            1
     number of electrons       =         8.00
     number of Kohn-Sham states=            4
     kinetic-energy cutoff     =      18.0000  Ry
     charge density cutoff     =      72.0000  Ry
     Exchange-correlation      = SLA  PW   PBE  PBE ( 1  4  3  4 0 0)

     celldm(1)=  10.325000  celldm(2)=   0.000000  celldm(3)=   0.000000
     celldm(4)=   0.000000  celldm(5)=   0.000000  celldm(6)=   0.000000

     crystal axes: (cart. coord. in units of alat)
               a(1) = (  -0.500000   0.000000   0.500000 )  
               a(2) = (   0.000000   0.500000   0.500000 )  
               a(3) = (  -0.500000   0.500000   0.000000 )  

     reciprocal axes: (cart. coord. in units 2 pi/alat)
               b(1) = ( -1.000000 -1.000000  1.000000 )  
               b(2) = (  1.000000  1.000000  1.000000 )  
               b(3) = ( -1.000000  1.000000 -1.000000 )  


     PseudoPot. # 1 for Si read from file:
     /home/max/quantum_espresso/qe-6.1/pseudo/si_pbe_v1.uspp.F.UPF.txt
     MD5 check sum: a056efeee980c13900f22a371efd63c1
     Pseudo is Ultrasoft + core correction, Zval =  4.0
     Generated by new atomic code, or converted to UPF format
     Using radial grid of  899 points,  6 beta functions with: 
                l(1) =   0
                l(2) =   0
                l(3) =   1
                l(4) =   1
                l(5) =   2
                l(6) =   2
     Q(r) pseudized with  8 coefficients,  rinner =    0.900   0.900   0.900
                                                       0.900   0.900

     atomic species   valence    mass     pseudopotential
        Si             4.00    28.08600     Si( 1.00)

     48 Sym. Ops., with inversion, found



   Cartesian axes

     site n.     atom                  positions (alat units)
         1           Si  tau(   1) = (   0.0000000   0.0000000   0.0000000  )
         2           Si  tau(   2) = (   0.2500000   0.2500000   0.2500000  )

     number of k points=    60
                       cart. coord. in units 2pi/alat
        k(    1) = (  -0.1250000   0.1250000   0.1250000), wk =   0.0468750
        k(    2) = (   0.3750000  -0.3750000   0.6250000), wk =   0.0000000
        k(    3) = (  -0.3750000   0.3750000  -0.1250000), wk =   0.0468750
        k(    4) = (   0.1250000  -0.1250000   0.3750000), wk =   0.0000000
        k(    5) = (   0.3750000  -0.3750000   0.6250000), wk =   0.0468750
        k(    6) = (   0.8750000  -0.8750000   1.1250000), wk =   0.0000000
        k(    7) = (   0.1250000  -0.1250000   0.3750000), wk =   0.0468750
        k(    8) = (   0.6250000  -0.6250000   0.8750000), wk =   0.0000000
        k(    9) = (  -0.1250000   0.6250000   0.1250000), wk =   0.0937500
        k(   10) = (   0.3750000   0.1250000   0.6250000), wk =   0.0000000
        k(   11) = (   0.6250000  -0.1250000   0.8750000), wk =   0.0937500
        k(   12) = (   1.1250000  -0.6250000   1.3750000), wk =   0.0000000
        k(   13) = (   0.3750000   0.1250000   0.6250000), wk =   0.0937500
        k(   14) = (   0.8750000  -0.3750000   1.1250000), wk =   0.0000000
        k(   15) = (  -0.1250000  -0.8750000   0.1250000), wk =   0.0937500
        k(   16) = (   0.3750000  -1.3750000   0.6250000), wk =   0.0000000
        k(   17) = (  -0.3750000   0.3750000   0.3750000), wk =   0.0468750
        k(   18) = (   0.1250000  -0.1250000   0.8750000), wk =   0.0000000
        k(   19) = (   0.3750000  -0.3750000   1.1250000), wk =   0.0468750
        k(   20) = (   0.8750000  -0.8750000   1.6250000), wk =   0.0000000
        k(   21) = (   0.1250000  -0.1250000   0.1250000), wk =   0.0156250
        k(   22) = (   0.6250000  -0.6250000   0.6250000), wk =   0.0000000
        k(   23) = (  -0.3750000  -0.3750000  -0.1250000), wk =   0.0937500
        k(   24) = (   0.1250000  -0.8750000   0.3750000), wk =   0.0000000
        k(   25) = (  -0.1250000  -0.3750000   0.3750000), wk =   0.0468750
        k(   26) = (   0.3750000  -0.8750000   0.8750000), wk =   0.0000000
        k(   27) = (   0.3750000   0.3750000   0.6250000), wk =   0.0937500
        k(   28) = (   0.8750000  -0.1250000   1.1250000), wk =   0.0000000
        k(   29) = (   0.6250000   0.3750000  -0.3750000), wk =   0.0468750
        k(   30) = (   1.1250000  -0.1250000   0.1250000), wk =   0.0000000
        k(   31) = (   0.1250000   0.1250000   0.3750000), wk =   0.0937500
        k(   32) = (   0.6250000  -0.3750000   0.8750000), wk =   0.0000000
        k(   33) = (   0.3750000   0.1250000  -0.1250000), wk =   0.0468750
        k(   34) = (   0.8750000  -0.3750000   0.3750000), wk =   0.0000000
        k(   35) = (  -0.1250000  -0.6250000  -0.1250000), wk =   0.0468750
        k(   36) = (   0.3750000  -1.1250000   0.3750000), wk =   0.0000000
        k(   37) = (   0.1250000  -0.6250000   0.1250000), wk =   0.0468750
        k(   38) = (   0.6250000  -1.1250000   0.6250000), wk =   0.0000000
        k(   39) = (   0.6250000   0.1250000   0.8750000), wk =   0.0937500
        k(   40) = (   1.1250000  -0.3750000   1.3750000), wk =   0.0000000
        k(   41) = (  -0.8750000   0.1250000   0.6250000), wk =   0.0937500
        k(   42) = (  -0.3750000  -0.3750000   1.1250000), wk =   0.0000000
        k(   43) = (   0.8750000   0.1250000  -0.6250000), wk =   0.0937500
        k(   44) = (   1.3750000  -0.3750000  -0.1250000), wk =   0.0000000
        k(   45) = (   0.3750000  -0.1250000   0.6250000), wk =   0.0937500
        k(   46) = (   0.8750000  -0.6250000   1.1250000), wk =   0.0000000
        k(   47) = (  -0.6250000  -0.1250000   0.3750000), wk =   0.0937500
        k(   48) = (  -0.1250000  -0.6250000   0.8750000), wk =   0.0000000
        k(   49) = (   0.6250000  -0.1250000  -0.3750000), wk =   0.0937500
        k(   50) = (   1.1250000  -0.6250000   0.1250000), wk =   0.0000000
        k(   51) = (  -0.1250000   0.8750000  -0.1250000), wk =   0.0468750
        k(   52) = (   0.3750000   0.3750000   0.3750000), wk =   0.0000000
        k(   53) = (   0.1250000   0.8750000   0.1250000), wk =   0.0468750
        k(   54) = (   0.6250000   0.3750000   0.6250000), wk =   0.0000000
        k(   55) = (   0.3750000  -0.3750000   0.3750000), wk =   0.0156250
        k(   56) = (   0.8750000  -0.8750000   0.8750000), wk =   0.0000000
        k(   57) = (   0.3750000   0.3750000   1.1250000), wk =   0.0937500
        k(   58) = (   0.8750000  -0.1250000   1.6250000), wk =   0.0000000
        k(   59) = (   1.1250000   0.3750000  -0.3750000), wk =   0.0468750
        k(   60) = (   1.6250000  -0.1250000   0.1250000), wk =   0.0000000

     Dense  grid:     2741 G-vectors     FFT dimensions: (  20,  20,  20)

     Estimated max dynamical RAM per process >       0.33MB

     Estimated total allocated dynamical RAM >       1.30MB

     Check: negative/imaginary core charge=   -0.000005    0.000000

     The potential is recalculated from file :
     ./_ph0/silicon.10.325.save/charge-density.dat

     Starting wfc are    8 atomic wfcs

     Band Structure Calculation
     Davidson diagonalization with overlap

     ethr =  1.25E-10,  avg # of iterations = 11.7

     total cpu time spent up to now is        1.7 secs

     End of band structure calculation

          k =-0.1250 0.1250 0.1250 (   338 PWs)   bands (ev):

    -5.6215   4.4161   5.7248   5.7248

          k = 0.3750-0.3750 0.6250 (   359 PWs)   bands (ev):

    -3.4566  -0.6581   3.7592   4.4704

          k =-0.3750 0.3750-0.1250 (   352 PWs)   bands (ev):

    -4.5954   1.4197   3.7397   5.2423

          k = 0.1250-0.1250 0.3750 (   349 PWs)   bands (ev):

    -5.0941   2.7969   4.7154   4.7808

          k = 0.3750-0.3750 0.6250 (   359 PWs)   bands (ev):

    -3.4566  -0.6581   3.7592   4.4704

          k = 0.8750-0.8750 1.1250 (   338 PWs)   bands (ev):

    -5.6215   4.4161   5.7248   5.7248

          k = 0.1250-0.1250 0.3750 (   349 PWs)   bands (ev):

    -5.0941   2.7969   4.7154   4.7808

          k = 0.6250-0.6250 0.8750 (   352 PWs)   bands (ev):

    -4.5954   1.4197   3.7397   5.2423

          k =-0.1250 0.6250 0.1250 (   349 PWs)   bands (ev):

    -4.0625   1.0838   3.3910   3.8403

          k = 0.3750 0.1250 0.6250 (   357 PWs)   bands (ev):

    -3.6475   0.2109   2.7502   4.1165

          k = 0.6250-0.1250 0.8750 (   359 PWs)   bands (ev):

    -2.4229  -0.8807   2.0389   3.1130

          k = 1.1250-0.6250 1.3750 (   352 PWs)   bands (ev):

    -4.5954   1.4197   3.7397   5.2423

          k = 0.3750 0.1250 0.6250 (   357 PWs)   bands (ev):

    -3.6475   0.2109   2.7502   4.1165

          k = 0.8750-0.3750 1.1250 (   349 PWs)   bands (ev):

    -4.0625   1.0838   3.3910   3.8403

          k =-0.1250-0.8750 0.1250 (   358 PWs)   bands (ev):

    -2.5903  -0.7833   2.6466   3.3729

          k = 0.3750-1.3750 0.6250 (   359 PWs)   bands (ev):

    -3.4566  -0.6581   3.7592   4.4704

          k =-0.3750 0.3750 0.3750 (   353 PWs)   bands (ev):

    -4.1632   0.1305   4.9354   4.9354

          k = 0.1250-0.1250 0.8750 (   358 PWs)   bands (ev):

    -2.5903  -0.7833   2.6466   3.3729

          k = 0.3750-0.3750 1.1250 (   361 PWs)   bands (ev):

    -2.9607  -0.5759   2.0968   4.1538

          k = 0.8750-0.8750 1.6250 (   349 PWs)   bands (ev):

    -4.0625   1.0838   3.3910   3.8403

          k = 0.1250-0.1250 0.1250 (   338 PWs)   bands (ev):

    -5.6215   4.4161   5.7248   5.7248

          k = 0.6250-0.6250 0.6250 (   353 PWs)   bands (ev):

    -4.1632   0.1305   4.9354   4.9354

          k =-0.3750-0.3750-0.1250 (   352 PWs)   bands (ev):

    -4.5954   1.4197   3.7397   5.2423

          k = 0.1250-0.8750 0.3750 (   359 PWs)   bands (ev):

    -2.4229  -0.8807   2.0389   3.1130

          k =-0.1250-0.3750 0.3750 (   352 PWs)   bands (ev):

    -4.5954   1.4197   3.7397   5.2423

          k = 0.3750-0.8750 0.8750 (   349 PWs)   bands (ev):

    -4.0625   1.0838   3.3910   3.8403

          k = 0.3750 0.3750 0.6250 (   359 PWs)   bands (ev):

    -3.4566  -0.6581   3.7592   4.4704

          k = 0.8750-0.1250 1.1250 (   358 PWs)   bands (ev):

    -2.5903  -0.7833   2.6466   3.3729

          k = 0.6250 0.3750-0.3750 (   359 PWs)   bands (ev):

    -3.4566  -0.6581   3.7592   4.4704

          k = 1.1250-0.1250 0.1250 (   358 PWs)   bands (ev):

    -2.5903  -0.7833   2.6466   3.3729

          k = 0.1250 0.1250 0.3750 (   349 PWs)   bands (ev):

    -5.0941   2.7969   4.7154   4.7808

          k = 0.6250-0.3750 0.8750 (   357 PWs)   bands (ev):

    -3.6475   0.2109   2.7502   4.1165

          k = 0.3750 0.1250-0.1250 (   349 PWs)   bands (ev):

    -5.0941   2.7969   4.7154   4.7808

          k = 0.8750-0.3750 0.3750 (   361 PWs)   bands (ev):

    -2.9607  -0.5759   2.0968   4.1538

          k =-0.1250-0.6250-0.1250 (   349 PWs)   bands (ev):

    -4.0625   1.0838   3.3910   3.8403

          k = 0.3750-1.1250 0.3750 (   361 PWs)   bands (ev):

    -2.9607  -0.5759   2.0968   4.1538

          k = 0.1250-0.6250 0.1250 (   349 PWs)   bands (ev):

    -4.0625   1.0838   3.3910   3.8403

          k = 0.6250-1.1250 0.6250 (   352 PWs)   bands (ev):

    -4.5954   1.4197   3.7397   5.2423

          k = 0.6250 0.1250 0.8750 (   359 PWs)   bands (ev):

    -2.4229  -0.8807   2.0389   3.1130

          k = 1.1250-0.3750 1.3750 (   357 PWs)   bands (ev):

    -3.6475   0.2109   2.7502   4.1165

          k =-0.8750 0.1250 0.6250 (   359 PWs)   bands (ev):

    -2.4229  -0.8807   2.0389   3.1130

          k =-0.3750-0.3750 1.1250 (   361 PWs)   bands (ev):

    -2.9607  -0.5759   2.0968   4.1538

          k = 0.8750 0.1250-0.6250 (   359 PWs)   bands (ev):

    -2.4229  -0.8807   2.0389   3.1130

          k = 1.3750-0.3750-0.1250 (   357 PWs)   bands (ev):

    -3.6475   0.2109   2.7502   4.1165

          k = 0.3750-0.1250 0.6250 (   357 PWs)   bands (ev):

    -3.6475   0.2109   2.7502   4.1165

          k = 0.8750-0.6250 1.1250 (   349 PWs)   bands (ev):

    -5.0941   2.7969   4.7154   4.7808

          k =-0.6250-0.1250 0.3750 (   357 PWs)   bands (ev):

    -3.6475   0.2109   2.7502   4.1165

          k =-0.1250-0.6250 0.8750 (   359 PWs)   bands (ev):

    -2.4229  -0.8807   2.0389   3.1130

          k = 0.6250-0.1250-0.3750 (   357 PWs)   bands (ev):

    -3.6475   0.2109   2.7502   4.1165

          k = 1.1250-0.6250 0.1250 (   359 PWs)   bands (ev):

    -2.4229  -0.8807   2.0389   3.1130

          k =-0.1250 0.8750-0.1250 (   358 PWs)   bands (ev):

    -2.5903  -0.7833   2.6466   3.3729

          k = 0.3750 0.3750 0.3750 (   353 PWs)   bands (ev):

    -4.1632   0.1305   4.9354   4.9354

          k = 0.1250 0.8750 0.1250 (   358 PWs)   bands (ev):

    -2.5903  -0.7833   2.6466   3.3729

          k = 0.6250 0.3750 0.6250 (   359 PWs)   bands (ev):

    -3.4566  -0.6581   3.7592   4.4704

          k = 0.3750-0.3750 0.3750 (   353 PWs)   bands (ev):

    -4.1632   0.1305   4.9354   4.9354

          k = 0.8750-0.8750 0.8750 (   338 PWs)   bands (ev):

    -5.6215   4.4161   5.7248   5.7248

          k = 0.3750 0.3750 1.1250 (   361 PWs)   bands (ev):

    -2.9607  -0.5759   2.0968   4.1538

          k = 0.8750-0.1250 1.6250 (   359 PWs)   bands (ev):

    -2.4229  -0.8807   2.0389   3.1130

          k = 1.1250 0.3750-0.3750 (   361 PWs)   bands (ev):

    -2.9607  -0.5759   2.0968   4.1538

          k = 1.6250-0.1250 0.1250 (   349 PWs)   bands (ev):

    -5.0941   2.7969   4.7154   4.7808

     highest occupied level (ev):     5.7248

     Writing output data file silicon.10.325.save

                                                                                

     bravais-lattice index     =            2
     lattice parameter (alat)  =      10.3250  a.u.
     unit-cell volume          =     275.1758 (a.u.)^3
     number of atoms/cell      =            2
     number of atomic types    =            1
     kinetic-energy cut-off    =      18.0000  Ry
     charge density cut-off    =      72.0000  Ry
     convergence threshold     =      1.0E-12
     beta                      =       0.7000
     number of iterations used =            4
     Exchange-correlation      = SLA  PW   PBE  PBE ( 1  4  3  4 0 0)


     celldm(1)=   10.32500  celldm(2)=    0.00000  celldm(3)=    0.00000
     celldm(4)=    0.00000  celldm(5)=    0.00000  celldm(6)=    0.00000

     crystal axes: (cart. coord. in units of alat)
               a(1) = ( -0.5000  0.0000  0.5000 )  
               a(2) = (  0.0000  0.5000  0.5000 )  
               a(3) = ( -0.5000  0.5000  0.0000 )  

     reciprocal axes: (cart. coord. in units 2 pi/alat)
               b(1) = ( -1.0000 -1.0000  1.0000 )  
               b(2) = (  1.0000  1.0000  1.0000 )  
               b(3) = ( -1.0000  1.0000 -1.0000 )  


     Atoms inside the unit cell: 

     Cartesian axes

     site n.  atom      mass           positions (alat units)
        1     Si  28.0860   tau(    1) = (    0.00000    0.00000    0.00000  )
        2     Si  28.0860   tau(    2) = (    0.25000    0.25000    0.25000  )

     Computing dynamical matrix for 
                    q = (   0.5000000  -0.5000000   0.5000000 )

     13 Sym.Ops. (with q -> -q+G )


     G cutoff =  194.4253  (    685 G-vectors)     FFT grid: ( 20, 20, 20)
     number of k points=    60

     PseudoPot. # 1 for Si read from file:
     /home/max/quantum_espresso/qe-6.1/pseudo/si_pbe_v1.uspp.F.UPF.txt
     MD5 check sum: a056efeee980c13900f22a371efd63c1
     Pseudo is Ultrasoft + core correction, Zval =  4.0
     Generated by new atomic code, or converted to UPF format
     Using radial grid of  899 points,  6 beta functions with: 
                l(1) =   0
                l(2) =   0
                l(3) =   1
                l(4) =   1
                l(5) =   2
                l(6) =   2
     Q(r) pseudized with  8 coefficients,  rinner =    0.900   0.900   0.900
                                                       0.900   0.900


     Atomic displacements:
     There are   4 irreducible representations

     Representation     1      1 modes -  To be done

     Representation     2      1 modes -  To be done

     Representation     3      2 modes -  To be done

     Representation     4      2 modes -  To be done



     Alpha used in Ewald sum =   0.7000
     PHONON       :    17.18s CPU        19.38s WALL



     Representation #  1 mode #   1

     Self-consistent Calculation

      iter #   1 total cpu time :    19.5 secs   av.it.:   4.8
      thresh= 1.000E-02 alpha_mix =  0.700 |ddv_scf|^2 =  2.486E-05

      iter #   2 total cpu time :    19.7 secs   av.it.:   8.3
      thresh= 4.986E-04 alpha_mix =  0.700 |ddv_scf|^2 =  2.210E-05

      iter #   3 total cpu time :    19.8 secs   av.it.:   7.5
      thresh= 4.701E-04 alpha_mix =  0.700 |ddv_scf|^2 =  4.181E-08

      iter #   4 total cpu time :    20.0 secs   av.it.:   7.5
      thresh= 2.045E-05 alpha_mix =  0.700 |ddv_scf|^2 =  1.412E-10

      iter #   5 total cpu time :    20.2 secs   av.it.:   7.9
      thresh= 1.188E-06 alpha_mix =  0.700 |ddv_scf|^2 =  3.597E-12

      iter #   6 total cpu time :    20.3 secs   av.it.:   7.9
      thresh= 1.896E-07 alpha_mix =  0.700 |ddv_scf|^2 =  5.556E-14

     End of self-consistent calculation

     Convergence has been achieved 


     Representation #  2 mode #   2

     Self-consistent Calculation

      iter #   1 total cpu time :    20.5 secs   av.it.:   5.6
      thresh= 1.000E-02 alpha_mix =  0.700 |ddv_scf|^2 =  3.456E-04

      iter #   2 total cpu time :    20.7 secs   av.it.:   8.3
      thresh= 1.859E-03 alpha_mix =  0.700 |ddv_scf|^2 =  1.065E-03

      iter #   3 total cpu time :    20.8 secs   av.it.:   7.1
      thresh= 3.263E-03 alpha_mix =  0.700 |ddv_scf|^2 =  1.130E-07

      iter #   4 total cpu time :    21.1 secs   av.it.:   8.1
      thresh= 3.361E-05 alpha_mix =  0.700 |ddv_scf|^2 =  7.233E-09

      iter #   5 total cpu time :    21.3 secs   av.it.:   8.5
      thresh= 8.505E-06 alpha_mix =  0.700 |ddv_scf|^2 =  1.296E-10

      iter #   6 total cpu time :    21.5 secs   av.it.:   8.3
      thresh= 1.138E-06 alpha_mix =  0.700 |ddv_scf|^2 =  2.061E-12

      iter #   7 total cpu time :    21.7 secs   av.it.:   7.8
      thresh= 1.436E-07 alpha_mix =  0.700 |ddv_scf|^2 =  3.169E-15

     End of self-consistent calculation

     Convergence has been achieved 


     Representation #  3 modes #   3  4

     Self-consistent Calculation

      iter #   1 total cpu time :    21.9 secs   av.it.:   4.7
      thresh= 1.000E-02 alpha_mix =  0.700 |ddv_scf|^2 =  3.027E-07

      iter #   2 total cpu time :    22.3 secs   av.it.:   9.1
      thresh= 5.502E-05 alpha_mix =  0.700 |ddv_scf|^2 =  2.495E-08

      iter #   3 total cpu time :    22.6 secs   av.it.:   8.4
      thresh= 1.579E-05 alpha_mix =  0.700 |ddv_scf|^2 =  4.925E-10

      iter #   4 total cpu time :    23.0 secs   av.it.:   8.9
      thresh= 2.219E-06 alpha_mix =  0.700 |ddv_scf|^2 =  6.197E-12

      iter #   5 total cpu time :    23.5 secs   av.it.:   8.7
      thresh= 2.489E-07 alpha_mix =  0.700 |ddv_scf|^2 =  3.213E-14

     End of self-consistent calculation

     Convergence has been achieved 


     Representation #  4 modes #   5  6

     Self-consistent Calculation

      iter #   1 total cpu time :    23.7 secs   av.it.:   5.0
      thresh= 1.000E-02 alpha_mix =  0.700 |ddv_scf|^2 =  9.785E-07

      iter #   2 total cpu time :    24.1 secs   av.it.:   9.5
      thresh= 9.892E-05 alpha_mix =  0.700 |ddv_scf|^2 =  7.657E-08

      iter #   3 total cpu time :    24.5 secs   av.it.:   9.3
      thresh= 2.767E-05 alpha_mix =  0.700 |ddv_scf|^2 =  4.890E-09

      iter #   4 total cpu time :    24.8 secs   av.it.:   8.5
      thresh= 6.993E-06 alpha_mix =  0.700 |ddv_scf|^2 =  6.583E-12

      iter #   5 total cpu time :    25.4 secs   av.it.:   8.8
      thresh= 2.566E-07 alpha_mix =  0.700 |ddv_scf|^2 =  2.287E-14

     End of self-consistent calculation

     Convergence has been achieved 

     Number of q in the star =    4
     List of q in the star:
          1   0.500000000  -0.500000000   0.500000000
          2   0.500000000   0.500000000   0.500000000
          3  -0.500000000   0.500000000   0.500000000
          4   0.500000000   0.500000000  -0.500000000

     Diagonalizing the dynamical matrix

     q = (    0.500000000  -0.500000000   0.500000000 ) 

 **************************************************************************
     freq (    1) =       4.537101 [THz] =     151.341404 [cm-1]
     freq (    2) =       4.537101 [THz] =     151.341404 [cm-1]
     freq (    3) =      11.552724 [THz] =     385.357405 [cm-1]
     freq (    4) =      12.174571 [THz] =     406.099978 [cm-1]
     freq (    5) =      14.453517 [THz] =     482.117434 [cm-1]
     freq (    6) =      14.453517 [THz] =     482.117434 [cm-1]
 **************************************************************************

     Calculation of q =    0.0000000   0.5000000   0.0000000

   Info: using nr1, nr2, nr3 values from input

   Info: using nr1, nr2, nr3 values from input

     Parallelization info
     --------------------
     sticks:   dense  smooth     PW     G-vecs:    dense   smooth      PW
     Min          63      63     27                  684      684     175
     Max          64      64     28                  688      688     176
     Sum         253     253    109                 2741     2741     701



     bravais-lattice index     =            2
     lattice parameter (alat)  =      10.3250  a.u.
     unit-cell volume          =     275.1758 (a.u.)^3
     number of atoms/cell      =            2
     number of atomic types    =            1
     number of electrons       =         8.00
     number of Kohn-Sham states=            4
     kinetic-energy cutoff     =      18.0000  Ry
     charge density cutoff     =      72.0000  Ry
     Exchange-correlation      = SLA  PW   PBE  PBE ( 1  4  3  4 0 0)

     celldm(1)=  10.325000  celldm(2)=   0.000000  celldm(3)=   0.000000
     celldm(4)=   0.000000  celldm(5)=   0.000000  celldm(6)=   0.000000

     crystal axes: (cart. coord. in units of alat)
               a(1) = (  -0.500000   0.000000   0.500000 )  
               a(2) = (   0.000000   0.500000   0.500000 )  
               a(3) = (  -0.500000   0.500000   0.000000 )  

     reciprocal axes: (cart. coord. in units 2 pi/alat)
               b(1) = ( -1.000000 -1.000000  1.000000 )  
               b(2) = (  1.000000  1.000000  1.000000 )  
               b(3) = ( -1.000000  1.000000 -1.000000 )  


     PseudoPot. # 1 for Si read from file:
     /home/max/quantum_espresso/qe-6.1/pseudo/si_pbe_v1.uspp.F.UPF.txt
     MD5 check sum: a056efeee980c13900f22a371efd63c1
     Pseudo is Ultrasoft + core correction, Zval =  4.0
     Generated by new atomic code, or converted to UPF format
     Using radial grid of  899 points,  6 beta functions with: 
                l(1) =   0
                l(2) =   0
                l(3) =   1
                l(4) =   1
                l(5) =   2
                l(6) =   2
     Q(r) pseudized with  8 coefficients,  rinner =    0.900   0.900   0.900
                                                       0.900   0.900

     atomic species   valence    mass     pseudopotential
        Si             4.00    28.08600     Si( 1.00)

     48 Sym. Ops., with inversion, found



   Cartesian axes

     site n.     atom                  positions (alat units)
         1           Si  tau(   1) = (   0.0000000   0.0000000   0.0000000  )
         2           Si  tau(   2) = (   0.2500000   0.2500000   0.2500000  )

     number of k points=    80
                       cart. coord. in units 2pi/alat
        k(    1) = (  -0.1250000   0.1250000   0.1250000), wk =   0.0312500
        k(    2) = (  -0.1250000   0.6250000   0.1250000), wk =   0.0000000
        k(    3) = (  -0.3750000   0.3750000  -0.1250000), wk =   0.0625000
        k(    4) = (  -0.3750000   0.8750000  -0.1250000), wk =   0.0000000
        k(    5) = (   0.3750000  -0.3750000   0.6250000), wk =   0.0625000
        k(    6) = (   0.3750000   0.1250000   0.6250000), wk =   0.0000000
        k(    7) = (   0.1250000  -0.1250000   0.3750000), wk =   0.0625000
        k(    8) = (   0.1250000   0.3750000   0.3750000), wk =   0.0000000
        k(    9) = (  -0.1250000   0.6250000   0.1250000), wk =   0.0312500
        k(   10) = (  -0.1250000   1.1250000   0.1250000), wk =   0.0000000
        k(   11) = (   0.6250000  -0.1250000   0.8750000), wk =   0.0625000
        k(   12) = (   0.6250000   0.3750000   0.8750000), wk =   0.0000000
        k(   13) = (   0.3750000   0.1250000   0.6250000), wk =   0.0625000
        k(   14) = (   0.3750000   0.6250000   0.6250000), wk =   0.0000000
        k(   15) = (  -0.1250000  -0.8750000   0.1250000), wk =   0.0312500
        k(   16) = (  -0.1250000  -0.3750000   0.1250000), wk =   0.0000000
        k(   17) = (  -0.3750000   0.3750000   0.3750000), wk =   0.0312500
        k(   18) = (  -0.3750000   0.8750000   0.3750000), wk =   0.0000000
        k(   19) = (   0.3750000  -0.3750000   1.1250000), wk =   0.0625000
        k(   20) = (   0.3750000   0.1250000   1.1250000), wk =   0.0000000
        k(   21) = (  -0.1250000  -0.1250000   0.1250000), wk =   0.0312500
        k(   22) = (  -0.1250000   0.3750000   0.1250000), wk =   0.0000000
        k(   23) = (   0.1250000  -0.3750000   0.3750000), wk =   0.0625000
        k(   24) = (   0.1250000   0.1250000   0.3750000), wk =   0.0000000
        k(   25) = (   0.3750000  -0.1250000   0.3750000), wk =   0.0312500
        k(   26) = (   0.3750000   0.3750000   0.3750000), wk =   0.0000000
        k(   27) = (   0.3750000   0.1250000   0.3750000), wk =   0.0312500
        k(   28) = (   0.3750000   0.6250000   0.3750000), wk =   0.0000000
        k(   29) = (  -0.6250000   0.3750000  -0.3750000), wk =   0.0625000
        k(   30) = (  -0.6250000   0.8750000  -0.3750000), wk =   0.0000000
        k(   31) = (  -0.3750000   0.6250000  -0.3750000), wk =   0.0312500
        k(   32) = (  -0.3750000   1.1250000  -0.3750000), wk =   0.0000000
        k(   33) = (  -0.3750000  -0.6250000  -0.3750000), wk =   0.0312500
        k(   34) = (  -0.3750000  -0.1250000  -0.3750000), wk =   0.0000000
        k(   35) = (  -0.3750000   0.1250000  -0.1250000), wk =   0.0625000
        k(   36) = (  -0.3750000   0.6250000  -0.1250000), wk =   0.0000000
        k(   37) = (  -0.1250000   0.3750000  -0.1250000), wk =   0.0312500
        k(   38) = (  -0.1250000   0.8750000  -0.1250000), wk =   0.0000000
        k(   39) = (  -0.1250000  -0.3750000  -0.1250000), wk =   0.0312500
        k(   40) = (  -0.1250000   0.1250000  -0.1250000), wk =   0.0000000
        k(   41) = (  -0.1250000  -0.6250000   0.1250000), wk =   0.0312500
        k(   42) = (  -0.1250000  -0.1250000   0.1250000), wk =   0.0000000
        k(   43) = (   0.6250000  -0.1250000  -0.1250000), wk =   0.0625000
        k(   44) = (   0.6250000   0.3750000  -0.1250000), wk =   0.0000000
        k(   45) = (   0.6250000   0.1250000   0.1250000), wk =   0.0625000
        k(   46) = (   0.6250000   0.6250000   0.1250000), wk =   0.0000000
        k(   47) = (  -0.8750000   0.1250000  -0.6250000), wk =   0.0625000
        k(   48) = (  -0.8750000   0.6250000  -0.6250000), wk =   0.0000000
        k(   49) = (  -0.1250000   0.6250000  -0.8750000), wk =   0.0625000
        k(   50) = (  -0.1250000   1.1250000  -0.8750000), wk =   0.0000000
        k(   51) = (  -0.1250000   0.8750000  -0.6250000), wk =   0.0625000
        k(   52) = (  -0.1250000   1.3750000  -0.6250000), wk =   0.0000000
        k(   53) = (  -0.1250000  -0.8750000  -0.6250000), wk =   0.0625000
        k(   54) = (  -0.1250000  -0.3750000  -0.6250000), wk =   0.0000000
        k(   55) = (   0.8750000  -0.6250000   0.1250000), wk =   0.0625000
        k(   56) = (   0.8750000  -0.1250000   0.1250000), wk =   0.0000000
        k(   57) = (  -0.6250000  -0.1250000  -0.3750000), wk =   0.0625000
        k(   58) = (  -0.6250000   0.3750000  -0.3750000), wk =   0.0000000
        k(   59) = (   0.1250000   0.3750000  -0.6250000), wk =   0.0625000
        k(   60) = (   0.1250000   0.8750000  -0.6250000), wk =   0.0000000
        k(   61) = (   0.1250000   0.6250000  -0.3750000), wk =   0.0625000
        k(   62) = (   0.1250000   1.1250000  -0.3750000), wk =   0.0000000
        k(   63) = (   0.1250000  -0.6250000  -0.3750000), wk =   0.0625000
        k(   64) = (   0.1250000  -0.1250000  -0.3750000), wk =   0.0000000
        k(   65) = (   0.6250000  -0.3750000  -0.1250000), wk =   0.0625000
        k(   66) = (   0.6250000   0.1250000  -0.1250000), wk =   0.0000000
        k(   67) = (  -0.1250000   0.8750000   0.1250000), wk =   0.0312500
        k(   68) = (  -0.1250000   1.3750000   0.1250000), wk =   0.0000000
        k(   69) = (  -0.8750000  -0.1250000  -0.1250000), wk =   0.0625000
        k(   70) = (  -0.8750000   0.3750000  -0.1250000), wk =   0.0000000
        k(   71) = (  -0.8750000   0.1250000   0.1250000), wk =   0.0625000
        k(   72) = (  -0.8750000   0.6250000   0.1250000), wk =   0.0000000
        k(   73) = (  -0.3750000  -0.3750000   0.3750000), wk =   0.0312500
        k(   74) = (  -0.3750000   0.1250000   0.3750000), wk =   0.0000000
        k(   75) = (  -1.1250000   0.3750000  -0.3750000), wk =   0.0625000
        k(   76) = (  -1.1250000   0.8750000  -0.3750000), wk =   0.0000000
        k(   77) = (  -0.3750000   1.1250000  -0.3750000), wk =   0.0312500
        k(   78) = (  -0.3750000   1.6250000  -0.3750000), wk =   0.0000000
        k(   79) = (  -0.3750000  -1.1250000  -0.3750000), wk =   0.0312500
        k(   80) = (  -0.3750000  -0.6250000  -0.3750000), wk =   0.0000000

     Dense  grid:     2741 G-vectors     FFT dimensions: (  20,  20,  20)

     Estimated max dynamical RAM per process >       0.33MB

     Estimated total allocated dynamical RAM >       1.30MB

     Check: negative/imaginary core charge=   -0.000005    0.000000

     The potential is recalculated from file :
     ./_ph0/silicon.10.325.save/charge-density.dat

     Starting wfc are    8 atomic wfcs

     Band Structure Calculation
     Davidson diagonalization with overlap

     ethr =  1.25E-10,  avg # of iterations = 11.7

     total cpu time spent up to now is        2.4 secs

     End of band structure calculation

          k =-0.1250 0.1250 0.1250 (   338 PWs)   bands (ev):

    -5.6215   4.4161   5.7248   5.7248

          k =-0.1250 0.6250 0.1250 (   349 PWs)   bands (ev):

    -4.0625   1.0838   3.3910   3.8403

          k =-0.3750 0.3750-0.1250 (   352 PWs)   bands (ev):

    -4.5954   1.4197   3.7397   5.2423

          k =-0.3750 0.8750-0.1250 (   359 PWs)   bands (ev):

    -2.4229  -0.8807   2.0389   3.1130

          k = 0.3750-0.3750 0.6250 (   359 PWs)   bands (ev):

    -3.4566  -0.6581   3.7592   4.4704

          k = 0.3750 0.1250 0.6250 (   357 PWs)   bands (ev):

    -3.6475   0.2109   2.7502   4.1165

          k = 0.1250-0.1250 0.3750 (   349 PWs)   bands (ev):

    -5.0941   2.7969   4.7154   4.7808

          k = 0.1250 0.3750 0.3750 (   352 PWs)   bands (ev):

    -4.5954   1.4197   3.7397   5.2423

          k =-0.1250 0.6250 0.1250 (   349 PWs)   bands (ev):

    -4.0625   1.0838   3.3910   3.8403

          k =-0.1250 1.1250 0.1250 (   358 PWs)   bands (ev):

    -2.5903  -0.7833   2.6466   3.3729

          k = 0.6250-0.1250 0.8750 (   359 PWs)   bands (ev):

    -2.4229  -0.8807   2.0389   3.1130

          k = 0.6250 0.3750 0.8750 (   357 PWs)   bands (ev):

    -3.6475   0.2109   2.7502   4.1165

          k = 0.3750 0.1250 0.6250 (   357 PWs)   bands (ev):

    -3.6475   0.2109   2.7502   4.1165

          k = 0.3750 0.6250 0.6250 (   359 PWs)   bands (ev):

    -3.4566  -0.6581   3.7592   4.4704

          k =-0.1250-0.8750 0.1250 (   358 PWs)   bands (ev):

    -2.5903  -0.7833   2.6466   3.3729

          k =-0.1250-0.3750 0.1250 (   349 PWs)   bands (ev):

    -5.0941   2.7969   4.7154   4.7808

          k =-0.3750 0.3750 0.3750 (   353 PWs)   bands (ev):

    -4.1632   0.1305   4.9354   4.9354

          k =-0.3750 0.8750 0.3750 (   361 PWs)   bands (ev):

    -2.9607  -0.5759   2.0968   4.1538

          k = 0.3750-0.3750 1.1250 (   361 PWs)   bands (ev):

    -2.9607  -0.5759   2.0968   4.1538

          k = 0.3750 0.1250 1.1250 (   359 PWs)   bands (ev):

    -2.4229  -0.8807   2.0389   3.1130

          k =-0.1250-0.1250 0.1250 (   338 PWs)   bands (ev):

    -5.6215   4.4161   5.7248   5.7248

          k =-0.1250 0.3750 0.1250 (   349 PWs)   bands (ev):

    -5.0941   2.7969   4.7154   4.7808

          k = 0.1250-0.3750 0.3750 (   352 PWs)   bands (ev):

    -4.5954   1.4197   3.7397   5.2423

          k = 0.1250 0.1250 0.3750 (   349 PWs)   bands (ev):

    -5.0941   2.7969   4.7154   4.7808

          k = 0.3750-0.1250 0.3750 (   352 PWs)   bands (ev):

    -4.5954   1.4197   3.7397   5.2423

          k = 0.3750 0.3750 0.3750 (   353 PWs)   bands (ev):

    -4.1632   0.1305   4.9354   4.9354

          k = 0.3750 0.1250 0.3750 (   352 PWs)   bands (ev):

    -4.5954   1.4197   3.7397   5.2423

          k = 0.3750 0.6250 0.3750 (   359 PWs)   bands (ev):

    -3.4566  -0.6581   3.7592   4.4704

          k =-0.6250 0.3750-0.3750 (   359 PWs)   bands (ev):

    -3.4566  -0.6581   3.7592   4.4704

          k =-0.6250 0.8750-0.3750 (   357 PWs)   bands (ev):

    -3.6475   0.2109   2.7502   4.1165

          k =-0.3750 0.6250-0.3750 (   359 PWs)   bands (ev):

    -3.4566  -0.6581   3.7592   4.4704

          k =-0.3750 1.1250-0.3750 (   361 PWs)   bands (ev):

    -2.9607  -0.5759   2.0968   4.1538

          k =-0.3750-0.6250-0.3750 (   359 PWs)   bands (ev):

    -3.4566  -0.6581   3.7592   4.4704

          k =-0.3750-0.1250-0.3750 (   352 PWs)   bands (ev):

    -4.5954   1.4197   3.7397   5.2423

          k =-0.3750 0.1250-0.1250 (   349 PWs)   bands (ev):

    -5.0941   2.7969   4.7154   4.7808

          k =-0.3750 0.6250-0.1250 (   357 PWs)   bands (ev):

    -3.6475   0.2109   2.7502   4.1165

          k =-0.1250 0.3750-0.1250 (   349 PWs)   bands (ev):

    -5.0941   2.7969   4.7154   4.7808

          k =-0.1250 0.8750-0.1250 (   358 PWs)   bands (ev):

    -2.5903  -0.7833   2.6466   3.3729

          k =-0.1250-0.3750-0.1250 (   349 PWs)   bands (ev):

    -5.0941   2.7969   4.7154   4.7808

          k =-0.1250 0.1250-0.1250 (   338 PWs)   bands (ev):

    -5.6215   4.4161   5.7248   5.7248

          k =-0.1250-0.6250 0.1250 (   349 PWs)   bands (ev):

    -4.0625   1.0838   3.3910   3.8403

          k =-0.1250-0.1250 0.1250 (   338 PWs)   bands (ev):

    -5.6215   4.4161   5.7248   5.7248

          k = 0.6250-0.1250-0.1250 (   349 PWs)   bands (ev):

    -4.0625   1.0838   3.3910   3.8403

          k = 0.6250 0.3750-0.1250 (   357 PWs)   bands (ev):

    -3.6475   0.2109   2.7502   4.1165

          k = 0.6250 0.1250 0.1250 (   349 PWs)   bands (ev):

    -4.0625   1.0838   3.3910   3.8403

          k = 0.6250 0.6250 0.1250 (   361 PWs)   bands (ev):

    -2.9607  -0.5759   2.0968   4.1538

          k =-0.8750 0.1250-0.6250 (   359 PWs)   bands (ev):

    -2.4229  -0.8807   2.0389   3.1130

          k =-0.8750 0.6250-0.6250 (   352 PWs)   bands (ev):

    -4.5954   1.4197   3.7397   5.2423

          k =-0.1250 0.6250-0.8750 (   359 PWs)   bands (ev):

    -2.4229  -0.8807   2.0389   3.1130

          k =-0.1250 1.1250-0.8750 (   358 PWs)   bands (ev):

    -2.5903  -0.7833   2.6466   3.3729

          k =-0.1250 0.8750-0.6250 (   359 PWs)   bands (ev):

    -2.4229  -0.8807   2.0389   3.1130

          k =-0.1250 1.3750-0.6250 (   361 PWs)   bands (ev):

    -2.9607  -0.5759   2.0968   4.1538

          k =-0.1250-0.8750-0.6250 (   359 PWs)   bands (ev):

    -2.4229  -0.8807   2.0389   3.1130

          k =-0.1250-0.3750-0.6250 (   357 PWs)   bands (ev):

    -3.6475   0.2109   2.7502   4.1165

          k = 0.8750-0.6250 0.1250 (   359 PWs)   bands (ev):

    -2.4229  -0.8807   2.0389   3.1130

          k = 0.8750-0.1250 0.1250 (   358 PWs)   bands (ev):

    -2.5903  -0.7833   2.6466   3.3729

          k =-0.6250-0.1250-0.3750 (   357 PWs)   bands (ev):

    -3.6475   0.2109   2.7502   4.1165

          k =-0.6250 0.3750-0.3750 (   359 PWs)   bands (ev):

    -3.4566  -0.6581   3.7592   4.4704

          k = 0.1250 0.3750-0.6250 (   357 PWs)   bands (ev):

    -3.6475   0.2109   2.7502   4.1165

          k = 0.1250 0.8750-0.6250 (   359 PWs)   bands (ev):

    -2.4229  -0.8807   2.0389   3.1130

          k = 0.1250 0.6250-0.3750 (   357 PWs)   bands (ev):

    -3.6475   0.2109   2.7502   4.1165

          k = 0.1250 1.1250-0.3750 (   359 PWs)   bands (ev):

    -2.4229  -0.8807   2.0389   3.1130

          k = 0.1250-0.6250-0.3750 (   357 PWs)   bands (ev):

    -3.6475   0.2109   2.7502   4.1165

          k = 0.1250-0.1250-0.3750 (   349 PWs)   bands (ev):

    -5.0941   2.7969   4.7154   4.7808

          k = 0.6250-0.3750-0.1250 (   357 PWs)   bands (ev):

    -3.6475   0.2109   2.7502   4.1165

          k = 0.6250 0.1250-0.1250 (   349 PWs)   bands (ev):

    -4.0625   1.0838   3.3910   3.8403

          k =-0.1250 0.8750 0.1250 (   358 PWs)   bands (ev):

    -2.5903  -0.7833   2.6466   3.3729

          k =-0.1250 1.3750 0.1250 (   349 PWs)   bands (ev):

    -4.0625   1.0838   3.3910   3.8403

          k =-0.8750-0.1250-0.1250 (   358 PWs)   bands (ev):

    -2.5903  -0.7833   2.6466   3.3729

          k =-0.8750 0.3750-0.1250 (   359 PWs)   bands (ev):

    -2.4229  -0.8807   2.0389   3.1130

          k =-0.8750 0.1250 0.1250 (   358 PWs)   bands (ev):

    -2.5903  -0.7833   2.6466   3.3729

          k =-0.8750 0.6250 0.1250 (   359 PWs)   bands (ev):

    -2.4229  -0.8807   2.0389   3.1130

          k =-0.3750-0.3750 0.3750 (   353 PWs)   bands (ev):

    -4.1632   0.1305   4.9354   4.9354

          k =-0.3750 0.1250 0.3750 (   352 PWs)   bands (ev):

    -4.5954   1.4197   3.7397   5.2423

          k =-1.1250 0.3750-0.3750 (   361 PWs)   bands (ev):

    -2.9607  -0.5759   2.0968   4.1538

          k =-1.1250 0.8750-0.3750 (   349 PWs)   bands (ev):

    -4.0625   1.0838   3.3910   3.8403

          k =-0.3750 1.1250-0.3750 (   361 PWs)   bands (ev):

    -2.9607  -0.5759   2.0968   4.1538

          k =-0.3750 1.6250-0.3750 (   353 PWs)   bands (ev):

    -4.1632   0.1305   4.9354   4.9354

          k =-0.3750-1.1250-0.3750 (   361 PWs)   bands (ev):

    -2.9607  -0.5759   2.0968   4.1538

          k =-0.3750-0.6250-0.3750 (   359 PWs)   bands (ev):

    -3.4566  -0.6581   3.7592   4.4704

     highest occupied level (ev):     5.7248

     Writing output data file silicon.10.325.save

                                                                                

     bravais-lattice index     =            2
     lattice parameter (alat)  =      10.3250  a.u.
     unit-cell volume          =     275.1758 (a.u.)^3
     number of atoms/cell      =            2
     number of atomic types    =            1
     kinetic-energy cut-off    =      18.0000  Ry
     charge density cut-off    =      72.0000  Ry
     convergence threshold     =      1.0E-12
     beta                      =       0.7000
     number of iterations used =            4
     Exchange-correlation      = SLA  PW   PBE  PBE ( 1  4  3  4 0 0)


     celldm(1)=   10.32500  celldm(2)=    0.00000  celldm(3)=    0.00000
     celldm(4)=    0.00000  celldm(5)=    0.00000  celldm(6)=    0.00000

     crystal axes: (cart. coord. in units of alat)
               a(1) = ( -0.5000  0.0000  0.5000 )  
               a(2) = (  0.0000  0.5000  0.5000 )  
               a(3) = ( -0.5000  0.5000  0.0000 )  

     reciprocal axes: (cart. coord. in units 2 pi/alat)
               b(1) = ( -1.0000 -1.0000  1.0000 )  
               b(2) = (  1.0000  1.0000  1.0000 )  
               b(3) = ( -1.0000  1.0000 -1.0000 )  


     Atoms inside the unit cell: 

     Cartesian axes

     site n.  atom      mass           positions (alat units)
        1     Si  28.0860   tau(    1) = (    0.00000    0.00000    0.00000  )
        2     Si  28.0860   tau(    2) = (    0.25000    0.25000    0.25000  )

     Computing dynamical matrix for 
                    q = (   0.0000000   0.5000000   0.0000000 )

      8 Sym.Ops. (no q -> -q+G )


     G cutoff =  194.4253  (    685 G-vectors)     FFT grid: ( 20, 20, 20)
     number of k points=    80

     PseudoPot. # 1 for Si read from file:
     /home/max/quantum_espresso/qe-6.1/pseudo/si_pbe_v1.uspp.F.UPF.txt
     MD5 check sum: a056efeee980c13900f22a371efd63c1
     Pseudo is Ultrasoft + core correction, Zval =  4.0
     Generated by new atomic code, or converted to UPF format
     Using radial grid of  899 points,  6 beta functions with: 
                l(1) =   0
                l(2) =   0
                l(3) =   1
                l(4) =   1
                l(5) =   2
                l(6) =   2
     Q(r) pseudized with  8 coefficients,  rinner =    0.900   0.900   0.900
                                                       0.900   0.900

     Mode symmetry, C_4v (4mm)  point group:


     Atomic displacements:
     There are   4 irreducible representations

     Representation     1      1 modes -A_1  G_1 D_1  To be done

     Representation     2      1 modes -B_2  G_4 D_2'  To be done

     Representation     3      2 modes -E    G_5 D_5  To be done

     Representation     4      2 modes -E    G_5 D_5  To be done



     Alpha used in Ewald sum =   0.7000
     PHONON       :    23.80s CPU        26.36s WALL



     Representation #  1 mode #   1

     Self-consistent Calculation

      iter #   1 total cpu time :    26.5 secs   av.it.:   5.8
      thresh= 1.000E-02 alpha_mix =  0.700 |ddv_scf|^2 =  2.978E-03

      iter #   2 total cpu time :    26.7 secs   av.it.:   7.7
      thresh= 5.457E-03 alpha_mix =  0.700 |ddv_scf|^2 =  3.912E-02

      iter #   3 total cpu time :    26.9 secs   av.it.:   6.7
      thresh= 1.000E-02 alpha_mix =  0.700 |ddv_scf|^2 =  1.373E-07

      iter #   4 total cpu time :    27.3 secs   av.it.:   8.2
      thresh= 3.705E-05 alpha_mix =  0.700 |ddv_scf|^2 =  1.241E-08

      iter #   5 total cpu time :    27.5 secs   av.it.:   7.8
      thresh= 1.114E-05 alpha_mix =  0.700 |ddv_scf|^2 =  7.429E-10

      iter #   6 total cpu time :    27.9 secs   av.it.:   7.8
      thresh= 2.726E-06 alpha_mix =  0.700 |ddv_scf|^2 =  2.694E-12

      iter #   7 total cpu time :    28.1 secs   av.it.:   7.9
      thresh= 1.641E-07 alpha_mix =  0.700 |ddv_scf|^2 =  5.337E-13

     End of self-consistent calculation

     Convergence has been achieved 


     Representation #  2 mode #   2

     Self-consistent Calculation

      iter #   1 total cpu time :    28.3 secs   av.it.:   4.9
      thresh= 1.000E-02 alpha_mix =  0.700 |ddv_scf|^2 =  5.509E-06

      iter #   2 total cpu time :    28.5 secs   av.it.:   8.7
      thresh= 2.347E-04 alpha_mix =  0.700 |ddv_scf|^2 =  1.331E-06

      iter #   3 total cpu time :    28.7 secs   av.it.:   8.5
      thresh= 1.153E-04 alpha_mix =  0.700 |ddv_scf|^2 =  4.232E-08

      iter #   4 total cpu time :    29.0 secs   av.it.:   8.2
      thresh= 2.057E-05 alpha_mix =  0.700 |ddv_scf|^2 =  6.848E-10

      iter #   5 total cpu time :    29.3 secs   av.it.:   8.5
      thresh= 2.617E-06 alpha_mix =  0.700 |ddv_scf|^2 =  6.845E-12

      iter #   6 total cpu time :    29.5 secs   av.it.:   7.9
      thresh= 2.616E-07 alpha_mix =  0.700 |ddv_scf|^2 =  6.905E-14

     End of self-consistent calculation

     Convergence has been achieved 


     Representation #  3 modes #   3  4

     Self-consistent Calculation

      iter #   1 total cpu time :    29.9 secs   av.it.:   5.0
      thresh= 1.000E-02 alpha_mix =  0.700 |ddv_scf|^2 =  1.024E-06

      iter #   2 total cpu time :    30.4 secs   av.it.:   9.7
      thresh= 1.012E-04 alpha_mix =  0.700 |ddv_scf|^2 =  1.268E-07

      iter #   3 total cpu time :    30.8 secs   av.it.:   9.5
      thresh= 3.561E-05 alpha_mix =  0.700 |ddv_scf|^2 =  6.656E-09

      iter #   4 total cpu time :    31.5 secs   av.it.:   8.8
      thresh= 8.159E-06 alpha_mix =  0.700 |ddv_scf|^2 =  9.340E-12

      iter #   5 total cpu time :    31.9 secs   av.it.:   9.1
      thresh= 3.056E-07 alpha_mix =  0.700 |ddv_scf|^2 =  2.843E-13

     End of self-consistent calculation

     Convergence has been achieved 


     Representation #  4 modes #   5  6

     Self-consistent Calculation

      iter #   1 total cpu time :    32.3 secs   av.it.:   5.0
      thresh= 1.000E-02 alpha_mix =  0.700 |ddv_scf|^2 =  9.081E-07

      iter #   2 total cpu time :    32.8 secs   av.it.:   9.8
      thresh= 9.529E-05 alpha_mix =  0.700 |ddv_scf|^2 =  1.150E-07

      iter #   3 total cpu time :    33.4 secs   av.it.:   9.4
      thresh= 3.391E-05 alpha_mix =  0.700 |ddv_scf|^2 =  6.122E-09

      iter #   4 total cpu time :    33.8 secs   av.it.:   8.9
      thresh= 7.825E-06 alpha_mix =  0.700 |ddv_scf|^2 =  1.401E-11

      iter #   5 total cpu time :    34.3 secs   av.it.:   9.2
      thresh= 3.743E-07 alpha_mix =  0.700 |ddv_scf|^2 =  4.297E-14

     End of self-consistent calculation

     Convergence has been achieved 

     Number of q in the star =    6
     List of q in the star:
          1   0.000000000   0.500000000   0.000000000
          2   0.000000000  -0.500000000   0.000000000
          3   0.500000000   0.000000000   0.000000000
          4   0.000000000   0.000000000   0.500000000
          5   0.000000000   0.000000000  -0.500000000
          6  -0.500000000   0.000000000   0.000000000

     Diagonalizing the dynamical matrix

     q = (    0.000000000   0.500000000   0.000000000 ) 

 **************************************************************************
     freq (    1) =       4.211998 [THz] =     140.497134 [cm-1]
     freq (    2) =       4.211998 [THz] =     140.497134 [cm-1]
     freq (    3) =       7.201168 [THz] =     240.205097 [cm-1]
     freq (    4) =      13.752158 [THz] =     458.722612 [cm-1]
     freq (    5) =      13.752158 [THz] =     458.722612 [cm-1]
     freq (    6) =      14.356274 [THz] =     478.873761 [cm-1]
 **************************************************************************

     Mode symmetry, C_4v (4mm)  point group:

     freq (  1 -  2) =        140.5  [cm-1]   --> E    G_5 D_5       
     freq (  3 -  3) =        240.2  [cm-1]   --> A_1  G_1 D_1       
     freq (  4 -  5) =        458.7  [cm-1]   --> E    G_5 D_5       
     freq (  6 -  6) =        478.9  [cm-1]   --> B_2  G_4 D_2'      

     Calculation of q =    0.7500000  -0.2500000   0.7500000

   Info: using nr1, nr2, nr3 values from input

   Info: using nr1, nr2, nr3 values from input

     Parallelization info
     --------------------
     sticks:   dense  smooth     PW     G-vecs:    dense   smooth      PW
     Min          63      63     30                  684      684     216
     Max          64      64     31                  688      688     218
     Sum         253     253    121                 2741     2741     869



     bravais-lattice index     =            2
     lattice parameter (alat)  =      10.3250  a.u.
     unit-cell volume          =     275.1758 (a.u.)^3
     number of atoms/cell      =            2
     number of atomic types    =            1
     number of electrons       =         8.00
     number of Kohn-Sham states=            4
     kinetic-energy cutoff     =      18.0000  Ry
     charge density cutoff     =      72.0000  Ry
     Exchange-correlation      = SLA  PW   PBE  PBE ( 1  4  3  4 0 0)

     celldm(1)=  10.325000  celldm(2)=   0.000000  celldm(3)=   0.000000
     celldm(4)=   0.000000  celldm(5)=   0.000000  celldm(6)=   0.000000

     crystal axes: (cart. coord. in units of alat)
               a(1) = (  -0.500000   0.000000   0.500000 )  
               a(2) = (   0.000000   0.500000   0.500000 )  
               a(3) = (  -0.500000   0.500000   0.000000 )  

     reciprocal axes: (cart. coord. in units 2 pi/alat)
               b(1) = ( -1.000000 -1.000000  1.000000 )  
               b(2) = (  1.000000  1.000000  1.000000 )  
               b(3) = ( -1.000000  1.000000 -1.000000 )  


     PseudoPot. # 1 for Si read from file:
     /home/max/quantum_espresso/qe-6.1/pseudo/si_pbe_v1.uspp.F.UPF.txt
     MD5 check sum: a056efeee980c13900f22a371efd63c1
     Pseudo is Ultrasoft + core correction, Zval =  4.0
     Generated by new atomic code, or converted to UPF format
     Using radial grid of  899 points,  6 beta functions with: 
                l(1) =   0
                l(2) =   0
                l(3) =   1
                l(4) =   1
                l(5) =   2
                l(6) =   2
     Q(r) pseudized with  8 coefficients,  rinner =    0.900   0.900   0.900
                                                       0.900   0.900

     atomic species   valence    mass     pseudopotential
        Si             4.00    28.08600     Si( 1.00)

     48 Sym. Ops., with inversion, found



   Cartesian axes

     site n.     atom                  positions (alat units)
         1           Si  tau(   1) = (   0.0000000   0.0000000   0.0000000  )
         2           Si  tau(   2) = (   0.2500000   0.2500000   0.2500000  )

     number of k points=   288

     Number of k-points >= 100: set verbosity='high' to print them.

     Dense  grid:     2741 G-vectors     FFT dimensions: (  20,  20,  20)

     Estimated max dynamical RAM per process >       0.33MB

     Estimated total allocated dynamical RAM >       1.30MB

     Check: negative/imaginary core charge=   -0.000005    0.000000

     The potential is recalculated from file :
     ./_ph0/silicon.10.325.save/charge-density.dat

     Starting wfc are    8 atomic wfcs

     Band Structure Calculation
     Davidson diagonalization with overlap

     ethr =  1.25E-10,  avg # of iterations = 11.6

     total cpu time spent up to now is        4.7 secs

     End of band structure calculation

     Number of k-points >= 100: set verbosity='high' to print the bands.

     highest occupied level (ev):     5.7248

     Writing output data file silicon.10.325.save

                                                                                

     bravais-lattice index     =            2
     lattice parameter (alat)  =      10.3250  a.u.
     unit-cell volume          =     275.1758 (a.u.)^3
     number of atoms/cell      =            2
     number of atomic types    =            1
     kinetic-energy cut-off    =      18.0000  Ry
     charge density cut-off    =      72.0000  Ry
     convergence threshold     =      1.0E-12
     beta                      =       0.7000
     number of iterations used =            4
     Exchange-correlation      = SLA  PW   PBE  PBE ( 1  4  3  4 0 0)


     celldm(1)=   10.32500  celldm(2)=    0.00000  celldm(3)=    0.00000
     celldm(4)=    0.00000  celldm(5)=    0.00000  celldm(6)=    0.00000

     crystal axes: (cart. coord. in units of alat)
               a(1) = ( -0.5000  0.0000  0.5000 )  
               a(2) = (  0.0000  0.5000  0.5000 )  
               a(3) = ( -0.5000  0.5000  0.0000 )  

     reciprocal axes: (cart. coord. in units 2 pi/alat)
               b(1) = ( -1.0000 -1.0000  1.0000 )  
               b(2) = (  1.0000  1.0000  1.0000 )  
               b(3) = ( -1.0000  1.0000 -1.0000 )  


     Atoms inside the unit cell: 

     Cartesian axes

     site n.  atom      mass           positions (alat units)
        1     Si  28.0860   tau(    1) = (    0.00000    0.00000    0.00000  )
        2     Si  28.0860   tau(    2) = (    0.25000    0.25000    0.25000  )

     Computing dynamical matrix for 
                    q = (   0.7500000  -0.2500000   0.7500000 )

      2 Sym.Ops. (no q -> -q+G )


     G cutoff =  194.4253  (    685 G-vectors)     FFT grid: ( 20, 20, 20)
     number of k points=   288

     PseudoPot. # 1 for Si read from file:
     /home/max/quantum_espresso/qe-6.1/pseudo/si_pbe_v1.uspp.F.UPF.txt
     MD5 check sum: a056efeee980c13900f22a371efd63c1
     Pseudo is Ultrasoft + core correction, Zval =  4.0
     Generated by new atomic code, or converted to UPF format
     Using radial grid of  899 points,  6 beta functions with: 
                l(1) =   0
                l(2) =   0
                l(3) =   1
                l(4) =   1
                l(5) =   2
                l(6) =   2
     Q(r) pseudized with  8 coefficients,  rinner =    0.900   0.900   0.900
                                                       0.900   0.900

     Mode symmetry, C_s (m)     point group:


     Atomic displacements:
     There are   6 irreducible representations

     Representation     1      1 modes -A'  To be done

     Representation     2      1 modes -A'  To be done

     Representation     3      1 modes -A'  To be done

     Representation     4      1 modes -A'  To be done

     Representation     5      1 modes -A''  To be done

     Representation     6      1 modes -A''  To be done



     Alpha used in Ewald sum =   0.7000
     PHONON       :    33.74s CPU        37.58s WALL



     Representation #  1 mode #   1

     Self-consistent Calculation

      iter #   1 total cpu time :    38.2 secs   av.it.:   5.3
      thresh= 1.000E-02 alpha_mix =  0.700 |ddv_scf|^2 =  6.130E-05

      iter #   2 total cpu time :    38.9 secs   av.it.:   8.9
      thresh= 7.829E-04 alpha_mix =  0.700 |ddv_scf|^2 =  1.602E-04

      iter #   3 total cpu time :    39.8 secs   av.it.:   7.6
      thresh= 1.266E-03 alpha_mix =  0.700 |ddv_scf|^2 =  1.141E-06

      iter #   4 total cpu time :    40.5 secs   av.it.:   8.4
      thresh= 1.068E-04 alpha_mix =  0.700 |ddv_scf|^2 =  5.597E-08

      iter #   5 total cpu time :    41.4 secs   av.it.:   8.3
      thresh= 2.366E-05 alpha_mix =  0.700 |ddv_scf|^2 =  7.237E-09

      iter #   6 total cpu time :    42.2 secs   av.it.:   8.5
      thresh= 8.507E-06 alpha_mix =  0.700 |ddv_scf|^2 =  7.873E-11

      iter #   7 total cpu time :    43.0 secs   av.it.:   8.8
      thresh= 8.873E-07 alpha_mix =  0.700 |ddv_scf|^2 =  2.832E-12

      iter #   8 total cpu time :    43.9 secs   av.it.:   8.6
      thresh= 1.683E-07 alpha_mix =  0.700 |ddv_scf|^2 =  1.751E-13

     End of self-consistent calculation

     Convergence has been achieved 


     Representation #  2 mode #   2

     Self-consistent Calculation

      iter #   1 total cpu time :    44.5 secs   av.it.:   5.4
      thresh= 1.000E-02 alpha_mix =  0.700 |ddv_scf|^2 =  1.092E-04

      iter #   2 total cpu time :    45.5 secs   av.it.:   8.7
      thresh= 1.045E-03 alpha_mix =  0.700 |ddv_scf|^2 =  3.110E-04

      iter #   3 total cpu time :    46.2 secs   av.it.:   7.4
      thresh= 1.763E-03 alpha_mix =  0.700 |ddv_scf|^2 =  7.804E-07

      iter #   4 total cpu time :    46.9 secs   av.it.:   8.6
      thresh= 8.834E-05 alpha_mix =  0.700 |ddv_scf|^2 =  5.557E-08

      iter #   5 total cpu time :    47.9 secs   av.it.:   8.2
      thresh= 2.357E-05 alpha_mix =  0.700 |ddv_scf|^2 =  1.018E-08

      iter #   6 total cpu time :    48.6 secs   av.it.:   8.5
      thresh= 1.009E-05 alpha_mix =  0.700 |ddv_scf|^2 =  7.836E-11

      iter #   7 total cpu time :    49.6 secs   av.it.:   8.8
      thresh= 8.852E-07 alpha_mix =  0.700 |ddv_scf|^2 =  2.500E-12

      iter #   8 total cpu time :    50.3 secs   av.it.:   8.7
      thresh= 1.581E-07 alpha_mix =  0.700 |ddv_scf|^2 =  6.119E-13

     End of self-consistent calculation

     Convergence has been achieved 


     Representation #  3 mode #   3

     Self-consistent Calculation

      iter #   1 total cpu time :    51.0 secs   av.it.:   5.3
      thresh= 1.000E-02 alpha_mix =  0.700 |ddv_scf|^2 =  8.561E-05

      iter #   2 total cpu time :    51.9 secs   av.it.:   8.8
      thresh= 9.253E-04 alpha_mix =  0.700 |ddv_scf|^2 =  2.283E-04

      iter #   3 total cpu time :    52.6 secs   av.it.:   7.4
      thresh= 1.511E-03 alpha_mix =  0.700 |ddv_scf|^2 =  1.334E-06

      iter #   4 total cpu time :    53.5 secs   av.it.:   8.2
      thresh= 1.155E-04 alpha_mix =  0.700 |ddv_scf|^2 =  5.663E-08

      iter #   5 total cpu time :    54.2 secs   av.it.:   8.4
      thresh= 2.380E-05 alpha_mix =  0.700 |ddv_scf|^2 =  1.042E-08

      iter #   6 total cpu time :    55.0 secs   av.it.:   8.5
      thresh= 1.021E-05 alpha_mix =  0.700 |ddv_scf|^2 =  4.613E-11

      iter #   7 total cpu time :    55.9 secs   av.it.:   8.7
      thresh= 6.792E-07 alpha_mix =  0.700 |ddv_scf|^2 =  1.564E-12

      iter #   8 total cpu time :    56.7 secs   av.it.:   8.8
      thresh= 1.250E-07 alpha_mix =  0.700 |ddv_scf|^2 =  2.149E-13

     End of self-consistent calculation

     Convergence has been achieved 


     Representation #  4 mode #   4

     Self-consistent Calculation

      iter #   1 total cpu time :    57.5 secs   av.it.:   5.2
      thresh= 1.000E-02 alpha_mix =  0.700 |ddv_scf|^2 =  3.776E-05

      iter #   2 total cpu time :    58.3 secs   av.it.:   8.9
[...]
        k(   59) = (  -0.8750000   0.1250000  -0.1250000), wk =   0.0625000
        k(   60) = (  -1.3750000  -0.8750000  -0.1250000), wk =   0.0000000
        k(   61) = (  -1.1250000   0.3750000  -0.3750000), wk =   0.0625000
        k(   62) = (  -1.6250000  -0.6250000  -0.3750000), wk =   0.0000000
        k(   63) = (  -0.3750000   0.3750000   1.1250000), wk =   0.0625000
        k(   64) = (  -0.8750000  -0.6250000   1.1250000), wk =   0.0000000

     Dense  grid:     2741 G-vectors     FFT dimensions: (  20,  20,  20)

     Estimated max dynamical RAM per process >       0.33MB

     Estimated total allocated dynamical RAM >       1.30MB

     Check: negative/imaginary core charge=   -0.000005    0.000000

     The potential is recalculated from file :
     ./_ph0/silicon.10.325.save/charge-density.dat

     Starting wfc are    8 atomic wfcs

     Band Structure Calculation
     Davidson diagonalization with overlap

     ethr =  1.25E-10,  avg # of iterations = 11.6

     total cpu time spent up to now is        7.3 secs

     End of band structure calculation

          k =-0.1250 0.1250 0.1250 (   338 PWs)   bands (ev):

    -5.6215   4.4161   5.7248   5.7248

          k =-0.6250-0.8750 0.1250 (   359 PWs)   bands (ev):

    -2.4229  -0.8807   2.0389   3.1130

          k =-0.3750 0.3750-0.1250 (   352 PWs)   bands (ev):

    -4.5954   1.4197   3.7397   5.2423

          k =-0.8750-0.6250-0.1250 (   359 PWs)   bands (ev):

    -2.4229  -0.8807   2.0389   3.1130

          k = 0.3750-0.3750 0.6250 (   359 PWs)   bands (ev):

    -3.4566  -0.6581   3.7592   4.4704

          k =-0.1250-1.3750 0.6250 (   361 PWs)   bands (ev):

    -2.9607  -0.5759   2.0968   4.1538

          k = 0.1250-0.1250 0.3750 (   349 PWs)   bands (ev):

    -5.0941   2.7969   4.7154   4.7808

          k =-0.3750-1.1250 0.3750 (   361 PWs)   bands (ev):

    -2.9607  -0.5759   2.0968   4.1538

          k =-0.1250 0.6250 0.1250 (   349 PWs)   bands (ev):

    -4.0625   1.0838   3.3910   3.8403

          k =-0.6250-0.3750 0.1250 (   357 PWs)   bands (ev):

    -3.6475   0.2109   2.7502   4.1165

          k = 0.6250-0.1250 0.8750 (   359 PWs)   bands (ev):

    -2.4229  -0.8807   2.0389   3.1130

          k = 0.1250-1.1250 0.8750 (   358 PWs)   bands (ev):

    -2.5903  -0.7833   2.6466   3.3729

          k = 0.3750 0.1250 0.6250 (   357 PWs)   bands (ev):

    -3.6475   0.2109   2.7502   4.1165

          k =-0.1250-0.8750 0.6250 (   359 PWs)   bands (ev):

    -2.4229  -0.8807   2.0389   3.1130

          k =-0.1250-0.8750 0.1250 (   358 PWs)   bands (ev):

    -2.5903  -0.7833   2.6466   3.3729

          k =-0.6250-1.8750 0.1250 (   349 PWs)   bands (ev):

    -4.0625   1.0838   3.3910   3.8403

          k =-0.3750 0.3750 0.3750 (   353 PWs)   bands (ev):

    -4.1632   0.1305   4.9354   4.9354

          k =-0.8750-0.6250 0.3750 (   357 PWs)   bands (ev):

    -3.6475   0.2109   2.7502   4.1165

          k = 0.3750-0.3750 1.1250 (   361 PWs)   bands (ev):

    -2.9607  -0.5759   2.0968   4.1538

          k =-0.1250-1.3750 1.1250 (   359 PWs)   bands (ev):

    -2.4229  -0.8807   2.0389   3.1130

          k = 0.1250-0.3750 0.3750 (   352 PWs)   bands (ev):

    -4.5954   1.4197   3.7397   5.2423

          k =-0.3750-1.3750 0.3750 (   359 PWs)   bands (ev):

    -3.4566  -0.6581   3.7592   4.4704

          k = 0.3750-0.3750-0.1250 (   352 PWs)   bands (ev):

    -4.5954   1.4197   3.7397   5.2423

          k =-0.1250-1.3750-0.1250 (   349 PWs)   bands (ev):

    -4.0625   1.0838   3.3910   3.8403

          k =-0.6250 0.3750-0.3750 (   359 PWs)   bands (ev):

    -3.4566  -0.6581   3.7592   4.4704

          k =-1.1250-0.6250-0.3750 (   357 PWs)   bands (ev):

    -3.6475   0.2109   2.7502   4.1165

          k =-0.3750 0.3750 0.6250 (   359 PWs)   bands (ev):

    -3.4566  -0.6581   3.7592   4.4704

          k =-0.8750-0.6250 0.6250 (   352 PWs)   bands (ev):

    -4.5954   1.4197   3.7397   5.2423

          k =-0.3750 0.1250-0.1250 (   349 PWs)   bands (ev):

    -5.0941   2.7969   4.7154   4.7808

          k =-0.8750-0.8750-0.1250 (   358 PWs)   bands (ev):

    -2.5903  -0.7833   2.6466   3.3729

          k =-0.1250 0.1250 0.3750 (   349 PWs)   bands (ev):

    -5.0941   2.7969   4.7154   4.7808

          k =-0.6250-0.8750 0.3750 (   357 PWs)   bands (ev):

    -3.6475   0.2109   2.7502   4.1165

          k = 0.1250 0.6250-0.1250 (   349 PWs)   bands (ev):

    -4.0625   1.0838   3.3910   3.8403

          k =-0.3750-0.3750-0.1250 (   352 PWs)   bands (ev):

    -4.5954   1.4197   3.7397   5.2423

          k = 0.6250 0.1250-0.1250 (   349 PWs)   bands (ev):

    -4.0625   1.0838   3.3910   3.8403

          k = 0.1250-0.8750-0.1250 (   358 PWs)   bands (ev):

    -2.5903  -0.7833   2.6466   3.3729

          k =-0.8750 0.1250-0.6250 (   359 PWs)   bands (ev):

    -2.4229  -0.8807   2.0389   3.1130

          k =-1.3750-0.8750-0.6250 (   352 PWs)   bands (ev):

    -4.5954   1.4197   3.7397   5.2423

          k = 0.8750-0.1250 0.6250 (   359 PWs)   bands (ev):

    -2.4229  -0.8807   2.0389   3.1130

          k = 0.3750-1.1250 0.6250 (   357 PWs)   bands (ev):

    -3.6475   0.2109   2.7502   4.1165

          k =-0.6250 0.1250 0.8750 (   359 PWs)   bands (ev):

    -2.4229  -0.8807   2.0389   3.1130

          k =-1.1250-0.8750 0.8750 (   338 PWs)   bands (ev):

    -5.6215   4.4161   5.7248   5.7248

          k =-0.1250 0.8750 0.6250 (   359 PWs)   bands (ev):

    -2.4229  -0.8807   2.0389   3.1130

          k =-0.6250-0.1250 0.6250 (   361 PWs)   bands (ev):

    -2.9607  -0.5759   2.0968   4.1538

          k = 0.1250 0.8750-0.6250 (   359 PWs)   bands (ev):

    -2.4229  -0.8807   2.0389   3.1130

          k =-0.3750-0.1250-0.6250 (   357 PWs)   bands (ev):

    -3.6475   0.2109   2.7502   4.1165

          k =-0.6250-0.1250-0.3750 (   357 PWs)   bands (ev):

    -3.6475   0.2109   2.7502   4.1165

          k =-1.1250-1.1250-0.3750 (   349 PWs)   bands (ev):

    -4.0625   1.0838   3.3910   3.8403

          k = 0.6250 0.1250 0.3750 (   357 PWs)   bands (ev):

    -3.6475   0.2109   2.7502   4.1165

          k = 0.1250-0.8750 0.3750 (   359 PWs)   bands (ev):

    -2.4229  -0.8807   2.0389   3.1130

          k =-0.3750-0.1250 0.6250 (   357 PWs)   bands (ev):

    -3.6475   0.2109   2.7502   4.1165

          k =-0.8750-1.1250 0.6250 (   349 PWs)   bands (ev):

    -5.0941   2.7969   4.7154   4.7808

          k = 0.1250 0.6250 0.3750 (   357 PWs)   bands (ev):

    -3.6475   0.2109   2.7502   4.1165

          k =-0.3750-0.3750 0.3750 (   353 PWs)   bands (ev):

    -4.1632   0.1305   4.9354   4.9354

          k =-0.1250 0.6250-0.3750 (   357 PWs)   bands (ev):

    -3.6475   0.2109   2.7502   4.1165

          k =-0.6250-0.3750-0.3750 (   359 PWs)   bands (ev):

    -3.4566  -0.6581   3.7592   4.4704

          k = 0.1250-0.8750-0.1250 (   358 PWs)   bands (ev):

    -2.5903  -0.7833   2.6466   3.3729

          k =-0.3750-1.8750-0.1250 (   349 PWs)   bands (ev):

    -5.0941   2.7969   4.7154   4.7808

          k =-0.8750 0.1250-0.1250 (   358 PWs)   bands (ev):

    -2.5903  -0.7833   2.6466   3.3729

          k =-1.3750-0.8750-0.1250 (   359 PWs)   bands (ev):

    -2.4229  -0.8807   2.0389   3.1130

          k =-1.1250 0.3750-0.3750 (   361 PWs)   bands (ev):

    -2.9607  -0.5759   2.0968   4.1538

          k =-1.6250-0.6250-0.3750 (   359 PWs)   bands (ev):

    -3.4566  -0.6581   3.7592   4.4704

          k =-0.3750 0.3750 1.1250 (   361 PWs)   bands (ev):

    -2.9607  -0.5759   2.0968   4.1538

          k =-0.8750-0.6250 1.1250 (   349 PWs)   bands (ev):

    -5.0941   2.7969   4.7154   4.7808

     highest occupied level (ev):     5.7248

     Writing output data file silicon.10.325.save

                                                                                

     bravais-lattice index     =            2
     lattice parameter (alat)  =      10.3250  a.u.
     unit-cell volume          =     275.1758 (a.u.)^3
     number of atoms/cell      =            2
     number of atomic types    =            1
     kinetic-energy cut-off    =      18.0000  Ry
     charge density cut-off    =      72.0000  Ry
     convergence threshold     =      1.0E-12
     beta                      =       0.7000
     number of iterations used =            4
     Exchange-correlation      = SLA  PW   PBE  PBE ( 1  4  3  4 0 0)


     celldm(1)=   10.32500  celldm(2)=    0.00000  celldm(3)=    0.00000
     celldm(4)=    0.00000  celldm(5)=    0.00000  celldm(6)=    0.00000

     crystal axes: (cart. coord. in units of alat)
               a(1) = ( -0.5000  0.0000  0.5000 )  
               a(2) = (  0.0000  0.5000  0.5000 )  
               a(3) = ( -0.5000  0.5000  0.0000 )  

     reciprocal axes: (cart. coord. in units 2 pi/alat)
               b(1) = ( -1.0000 -1.0000  1.0000 )  
               b(2) = (  1.0000  1.0000  1.0000 )  
               b(3) = ( -1.0000  1.0000 -1.0000 )  


     Atoms inside the unit cell: 

     Cartesian axes

     site n.  atom      mass           positions (alat units)
        1     Si  28.0860   tau(    1) = (    0.00000    0.00000    0.00000  )
        2     Si  28.0860   tau(    2) = (    0.25000    0.25000    0.25000  )

     Computing dynamical matrix for 
                    q = (  -0.5000000  -1.0000000   0.0000000 )

      8 Sym.Ops. (no q -> -q+G )


     G cutoff =  194.4253  (    685 G-vectors)     FFT grid: ( 20, 20, 20)
     number of k points=    64

     PseudoPot. # 1 for Si read from file:
     /home/max/quantum_espresso/qe-6.1/pseudo/si_pbe_v1.uspp.F.UPF.txt
     MD5 check sum: a056efeee980c13900f22a371efd63c1
     Pseudo is Ultrasoft + core correction, Zval =  4.0
     Generated by new atomic code, or converted to UPF format
     Using radial grid of  899 points,  6 beta functions with: 
                l(1) =   0
                l(2) =   0
                l(3) =   1
                l(4) =   1
                l(5) =   2
                l(6) =   2
     Q(r) pseudized with  8 coefficients,  rinner =    0.900   0.900   0.900
                                                       0.900   0.900


     Atomic displacements:
     There are   3 irreducible representations

     Representation     1      2 modes -  To be done

     Representation     2      2 modes -  To be done

     Representation     3      2 modes -  To be done



     Alpha used in Ewald sum =   0.7000
     PHONON       :  1m24.98s CPU     1m33.44s WALL



     Representation #  1 modes #   1  2

     Self-consistent Calculation

      iter #   1 total cpu time :    93.7 secs   av.it.:   5.3
      thresh= 1.000E-02 alpha_mix =  0.700 |ddv_scf|^2 =  6.348E-06

      iter #   2 total cpu time :    94.1 secs   av.it.:   9.9
      thresh= 2.520E-04 alpha_mix =  0.700 |ddv_scf|^2 =  3.440E-06

      iter #   3 total cpu time :    94.5 secs   av.it.:   9.2
      thresh= 1.855E-04 alpha_mix =  0.700 |ddv_scf|^2 =  8.402E-09

      iter #   4 total cpu time :    94.9 secs   av.it.:   9.1
      thresh= 9.166E-06 alpha_mix =  0.700 |ddv_scf|^2 =  1.914E-11

      iter #   5 total cpu time :    95.4 secs   av.it.:   9.1
      thresh= 4.375E-07 alpha_mix =  0.700 |ddv_scf|^2 =  5.291E-13

     End of self-consistent calculation

     Convergence has been achieved 


     Representation #  2 modes #   3  4

     Self-consistent Calculation

      iter #   1 total cpu time :    95.7 secs   av.it.:   5.2
      thresh= 1.000E-02 alpha_mix =  0.700 |ddv_scf|^2 =  9.829E-06

      iter #   2 total cpu time :    96.1 secs   av.it.:   9.9
      thresh= 3.135E-04 alpha_mix =  0.700 |ddv_scf|^2 =  1.304E-05

      iter #   3 total cpu time :    96.5 secs   av.it.:   9.1
      thresh= 3.612E-04 alpha_mix =  0.700 |ddv_scf|^2 =  9.870E-09

      iter #   4 total cpu time :    96.8 secs   av.it.:   8.9
      thresh= 9.935E-06 alpha_mix =  0.700 |ddv_scf|^2 =  7.962E-11

      iter #   5 total cpu time :    97.4 secs   av.it.:   9.4
      thresh= 8.923E-07 alpha_mix =  0.700 |ddv_scf|^2 =  1.721E-12

      iter #   6 total cpu time :    97.8 secs   av.it.:   9.1
      thresh= 1.312E-07 alpha_mix =  0.700 |ddv_scf|^2 =  1.435E-14

     End of self-consistent calculation

     Convergence has been achieved 


     Representation #  3 modes #   5  6

     Self-consistent Calculation

      iter #   1 total cpu time :    98.1 secs   av.it.:   5.1
      thresh= 1.000E-02 alpha_mix =  0.700 |ddv_scf|^2 =  2.656E-06

      iter #   2 total cpu time :    98.4 secs   av.it.:   9.7
      thresh= 1.630E-04 alpha_mix =  0.700 |ddv_scf|^2 =  1.451E-06

      iter #   3 total cpu time :    98.8 secs   av.it.:   9.1
      thresh= 1.205E-04 alpha_mix =  0.700 |ddv_scf|^2 =  8.278E-09

      iter #   4 total cpu time :    99.3 secs   av.it.:   8.8
      thresh= 9.099E-06 alpha_mix =  0.700 |ddv_scf|^2 =  4.265E-11

      iter #   5 total cpu time :    99.7 secs   av.it.:   9.1
      thresh= 6.531E-07 alpha_mix =  0.700 |ddv_scf|^2 =  6.995E-13

     End of self-consistent calculation

     Convergence has been achieved 

     Number of q in the star =    6
     List of q in the star:
          1  -0.500000000  -1.000000000   0.000000000
          2   0.000000000   1.000000000   0.500000000
          3   0.000000000  -1.000000000  -0.500000000
          4   0.500000000   1.000000000   0.000000000
          5  -1.000000000  -0.500000000   0.000000000
          6   0.000000000  -0.500000000  -1.000000000

     Diagonalizing the dynamical matrix

     q = (   -0.500000000  -1.000000000   0.000000000 ) 

 **************************************************************************
     freq (    1) =       6.982844 [THz] =     232.922619 [cm-1]
     freq (    2) =       6.982844 [THz] =     232.922619 [cm-1]
     freq (    3) =      10.804328 [THz] =     360.393598 [cm-1]
     freq (    4) =      10.804328 [THz] =     360.393598 [cm-1]
     freq (    5) =      13.827386 [THz] =     461.231948 [cm-1]
     freq (    6) =      13.827386 [THz] =     461.231948 [cm-1]
 **************************************************************************

     init_run     :      0.64s CPU      0.67s WALL (       7 calls)
     electrons    :      5.32s CPU      5.83s WALL (       7 calls)

     Called by init_run:
     wfcinit      :      0.00s CPU      0.00s WALL (       7 calls)
     potinit      :      0.02s CPU      0.02s WALL (       7 calls)

     Called by electrons:
     c_bands      :      5.32s CPU      5.81s WALL (       7 calls)
     v_of_rho     :      0.01s CPU      0.01s WALL (       8 calls)
     newd         :      0.03s CPU      0.04s WALL (       8 calls)

     Called by c_bands:
     init_us_2    :      0.69s CPU      0.75s WALL (   17588 calls)
     cegterg      :      4.48s CPU      4.89s WALL (     796 calls)

     Called by sum_band:

     Called by *egterg:
     h_psi        :     49.76s CPU     54.61s WALL (  152191 calls)
     s_psi        :      5.79s CPU      6.34s WALL (  309102 calls)
     g_psi        :      0.03s CPU      0.03s WALL (    9268 calls)
     cdiaghg      :      0.45s CPU      0.52s WALL (   10064 calls)

     Called by h_psi:
     h_psi:pot    :     49.57s CPU     54.40s WALL (  152191 calls)
     h_psi:calbec :      5.31s CPU      5.84s WALL (  152191 calls)
     vloc_psi     :     41.14s CPU     45.12s WALL (  152191 calls)
     add_vuspsi   :      2.90s CPU      3.19s WALL (  152191 calls)

     General routines
     calbec       :     11.62s CPU     12.86s WALL (  345474 calls)
     fft          :      0.72s CPU      0.75s WALL (    5239 calls)
     ffts         :      0.16s CPU      0.17s WALL (    2748 calls)
     fftw         :     48.08s CPU     52.79s WALL ( 1378456 calls)
     davcio       :      0.30s CPU      0.34s WALL (   79045 calls)

     Parallel routines
     fft_scatter  :     15.93s CPU     17.64s WALL ( 1386443 calls)

     PHONON       :  1m30.84s CPU     1m39.74s WALL

     INITIALIZATION: 
     phq_setup    :      0.15s CPU      0.26s WALL (       8 calls)
     phq_init     :      2.30s CPU      2.49s WALL (       8 calls)

     phq_init     :      2.30s CPU      2.49s WALL (       8 calls)
     set_drhoc    :      0.28s CPU      0.29s WALL (      24 calls)
     init_vloc    :      0.01s CPU      0.01s WALL (       8 calls)
     init_us_1    :      0.57s CPU      0.59s WALL (       8 calls)
     newd         :      0.03s CPU      0.04s WALL (       8 calls)
     dvanqq       :      0.25s CPU      0.25s WALL (       8 calls)
     drho         :      1.20s CPU      1.36s WALL (       8 calls)

     DYNAMICAL MATRIX:
     dynmat0      :      0.52s CPU      0.54s WALL (       8 calls)
     phqscf       :     79.67s CPU     87.49s WALL (       8 calls)
     dynmatrix    :      0.01s CPU      0.01s WALL (       8 calls)

     phqscf       :     79.67s CPU     87.49s WALL (       8 calls)
     solve_linter :     78.87s CPU     86.60s WALL (      32 calls)
     drhodv       :      0.58s CPU      0.64s WALL (      32 calls)

     dynmat0      :      0.52s CPU      0.54s WALL (       8 calls)
     dynmat_us    :      0.29s CPU      0.30s WALL (       8 calls)
     d2ionq       :      0.00s CPU      0.01s WALL (       8 calls)
     dynmatcc     :      0.21s CPU      0.21s WALL (       8 calls)

     dynmat_us    :      0.29s CPU      0.30s WALL (       8 calls)
     addusdynmat  :      0.00s CPU      0.00s WALL (       8 calls)

     phqscf       :     79.67s CPU     87.49s WALL (       8 calls)
     solve_linter :     78.87s CPU     86.60s WALL (      32 calls)

     solve_linter :     78.87s CPU     86.60s WALL (      32 calls)
     dvqpsi_us    :      1.75s CPU      1.90s WALL (    2508 calls)
     ortho        :      1.33s CPU      1.46s WALL (   15550 calls)
     cgsolve      :     62.07s CPU     68.33s WALL (   15550 calls)
     incdrhoscf   :      5.41s CPU      5.94s WALL (   15550 calls)
     addusddens   :      1.23s CPU      1.28s WALL (     228 calls)
     vpsifft      :      3.94s CPU      4.33s WALL (   12922 calls)
     dv_of_drho   :      0.26s CPU      0.27s WALL (     295 calls)
     mix_pot      :      0.06s CPU      0.07s WALL (     201 calls)
     psymdvscf    :      0.81s CPU      0.84s WALL (     196 calls)
     newdq        :      1.38s CPU      1.48s WALL (     201 calls)
     adddvscf     :      0.47s CPU      0.52s WALL (   13042 calls)
     drhodvus     :      0.00s CPU      0.00s WALL (      32 calls)

     dvqpsi_us    :      1.75s CPU      1.90s WALL (    2508 calls)
     dvqpsi_us_on :      0.82s CPU      0.90s WALL (    2508 calls)

     cgsolve      :     62.07s CPU     68.33s WALL (   15550 calls)
     ch_psi       :     59.20s CPU     65.06s WALL (  141331 calls)

     ch_psi       :     59.20s CPU     65.06s WALL (  141331 calls)
     h_psi        :     49.76s CPU     54.61s WALL (  152191 calls)
     last         :     10.13s CPU     11.22s WALL (  141331 calls)

     h_psi        :     49.76s CPU     54.61s WALL (  152191 calls)
     add_vuspsi   :      2.90s CPU      3.19s WALL (  152191 calls)

     incdrhoscf   :      5.41s CPU      5.94s WALL (   15550 calls)
     addusdbec    :      0.79s CPU      0.86s WALL (   17998 calls)

     drhodvus     :      0.00s CPU      0.00s WALL (      32 calls)

      General routines
     calbec       :     11.62s CPU     12.86s WALL (  345474 calls)
     fft          :      0.72s CPU      0.75s WALL (    5239 calls)
     ffts         :      0.16s CPU      0.17s WALL (    2748 calls)
     fftw         :     48.08s CPU     52.79s WALL ( 1378456 calls)
     davcio       :      0.30s CPU      0.34s WALL (   79045 calls)
     write_rec    :      0.22s CPU      0.25s WALL (     233 calls)


     PHONON       :  1m30.84s CPU     1m39.74s WALL


   This run was terminated on:  12:10:26   9Nov2017            

=------------------------------------------------------------------------------=
   JOB DONE.
=------------------------------------------------------------------------------=
