
     Program PHONON v.6.1 (svn rev. 13369) starts on 10Nov2017 at 15:32: 0 

     This program is part of the open-source Quantum ESPRESSO suite
     for quantum simulation of materials; please cite
         "P. Giannozzi et al., J. Phys.:Condens. Matter 21 395502 (2009);
          URL http://www.quantum-espresso.org", 
     in publications or presentations arising from this work. More details at
     http://www.quantum-espresso.org/quote

     Parallel version (MPI), running on     4 processors
     R & G space division:  proc/nbgrp/npool/nimage =       4

     Reading data from directory:
     ./silicon.10.298.save

   Info: using nr1, nr2, nr3 values from input

   Info: using nr1, nr2, nr3 values from input

     IMPORTANT: XC functional enforced from input :
     Exchange-correlation      = SLA  PW   PBE  PBE ( 1  4  3  4 0 0)
     Any further DFT definition will be discarded
     Please, verify this is what you really want


     Parallelization info
     --------------------
     sticks:   dense  smooth     PW     G-vecs:    dense   smooth      PW
     Min         217     108     37                 4288     1495     284
     Max         219     109     38                 4289     1498     285
     Sum         871     433    151                17153     5985    1139



     Dynamical matrices for ( 4, 4, 4)  uniform grid of q-points
     (   8q-points):
       N         xq(1)         xq(2)         xq(3) 
       1   0.000000000   0.000000000   0.000000000
       2  -0.250000000   0.250000000  -0.250000000
       3   0.500000000  -0.500000000   0.500000000
       4   0.000000000   0.500000000   0.000000000
       5   0.750000000  -0.250000000   0.750000000
       6   0.500000000   0.000000000   0.500000000
       7   0.000000000  -1.000000000   0.000000000
       8  -0.500000000  -1.000000000   0.000000000

     Calculation of q =    0.0000000   0.0000000   0.0000000

                                                                                

     bravais-lattice index     =            2
     lattice parameter (alat)  =      10.2980  a.u.
     unit-cell volume          =     273.0226 (a.u.)^3
     number of atoms/cell      =            2
     number of atomic types    =            1
     kinetic-energy cut-off    =      30.0000  Ry
     charge density cut-off    =     240.0000  Ry
     convergence threshold     =      1.0E-12
     beta                      =       0.7000
     number of iterations used =            4
     Exchange-correlation      = SLA  PW   PBE  PBE ( 1  4  3  4 0 0)


     celldm(1)=   10.29800  celldm(2)=    0.00000  celldm(3)=    0.00000
     celldm(4)=    0.00000  celldm(5)=    0.00000  celldm(6)=    0.00000

     crystal axes: (cart. coord. in units of alat)
               a(1) = ( -0.5000  0.0000  0.5000 )  
               a(2) = (  0.0000  0.5000  0.5000 )  
               a(3) = ( -0.5000  0.5000  0.0000 )  

     reciprocal axes: (cart. coord. in units 2 pi/alat)
               b(1) = ( -1.0000 -1.0000  1.0000 )  
               b(2) = (  1.0000  1.0000  1.0000 )  
               b(3) = ( -1.0000  1.0000 -1.0000 )  


     Atoms inside the unit cell: 

     Cartesian axes

     site n.  atom      mass           positions (alat units)
        1     Si  28.0860   tau(    1) = (    0.00000    0.00000    0.00000  )
        2     Si  28.0860   tau(    2) = (    0.25000    0.25000    0.25000  )

     Computing dynamical matrix for 
                    q = (   0.0000000   0.0000000   0.0000000 )

     49 Sym.Ops. (with q -> -q+G )


     G cutoff =  644.6994  (   4288 G-vectors)     FFT grid: ( 36, 36, 36)
     G cutoff =  322.3497  (   1497 G-vectors)  smooth grid: ( 25, 25, 25)
     number of k points=    10

     PseudoPot. # 1 for Si read from file:
     /home/s1333534/quantum_espresso/qe-6.1/pseudo/si_pbe_v1.uspp.F.UPF.txt
     MD5 check sum: a056efeee980c13900f22a371efd63c1
     Pseudo is Ultrasoft + core correction, Zval =  4.0
     Generated by new atomic code, or converted to UPF format
     Using radial grid of  899 points,  6 beta functions with: 
                l(1) =   0
                l(2) =   0
                l(3) =   1
                l(4) =   1
                l(5) =   2
                l(6) =   2
     Q(r) pseudized with  8 coefficients,  rinner =    0.900   0.900   0.900
                                                       0.900   0.900

     Mode symmetry, O_h (m-3m)  point group:


     Electric field:
     Dielectric constant
     Born effective charges in two ways 


     Atomic displacements:
     There are   2 irreducible representations

     Representation     1      3 modes -T_2g G_25' G_5+  To be done

     Representation     2      3 modes -T_1u G_15  G_4-  To be done



     Alpha used in Ewald sum =   2.5000
     PHONON       :     0.94s CPU         1.32s WALL


     Electric Fields Calculation

      iter #   1 total cpu time :     2.4 secs   av.it.:   5.7
      thresh= 1.000E-02 alpha_mix =  0.700 |ddv_scf|^2 =  1.335E-07

      iter #   2 total cpu time :     3.1 secs   av.it.:  11.7
      thresh= 3.654E-05 alpha_mix =  0.700 |ddv_scf|^2 =  7.753E-09

      iter #   3 total cpu time :     3.7 secs   av.it.:  11.4
      thresh= 8.805E-06 alpha_mix =  0.700 |ddv_scf|^2 =  5.108E-10

      iter #   4 total cpu time :     4.4 secs   av.it.:  10.3
      thresh= 2.260E-06 alpha_mix =  0.700 |ddv_scf|^2 =  3.287E-12

      iter #   5 total cpu time :     4.9 secs   av.it.:  11.1
      thresh= 1.813E-07 alpha_mix =  0.700 |ddv_scf|^2 =  3.278E-15

     End of electric fields calculation

          Dielectric constant in cartesian axis 

          (      13.897525439       0.000000000      -0.000000000 )
          (       0.000000000      13.897525439      -0.000000000 )
          (      -0.000000000       0.000000000      13.897525439 )

          Effective charges (d Force / dE) in cartesian axis

           atom      1   Si 
      Ex  (       -0.03914       -0.00000        0.00000 )
      Ey  (       -0.00000       -0.03914        0.00000 )
      Ez  (        0.00000        0.00000       -0.03914 )
           atom      2   Si 
      Ex  (       -0.03914       -0.00000       -0.00000 )
      Ey  (       -0.00000       -0.03914        0.00000 )
      Ez  (       -0.00000        0.00000       -0.03914 )


     Representation #  1 modes #   1  2  3

     Self-consistent Calculation

      iter #   1 total cpu time :     6.2 secs   av.it.:   5.1
      thresh= 1.000E-02 alpha_mix =  0.700 |ddv_scf|^2 =  2.356E-08

      iter #   2 total cpu time :     6.9 secs   av.it.:  11.6
      thresh= 1.535E-05 alpha_mix =  0.700 |ddv_scf|^2 =  9.668E-10

      iter #   3 total cpu time :     7.6 secs   av.it.:  11.1
      thresh= 3.109E-06 alpha_mix =  0.700 |ddv_scf|^2 =  6.574E-11

      iter #   4 total cpu time :     8.2 secs   av.it.:  10.1
      thresh= 8.108E-07 alpha_mix =  0.700 |ddv_scf|^2 =  1.599E-13

     End of self-consistent calculation

     Convergence has been achieved 


     Representation #  2 modes #   4  5  6

     Self-consistent Calculation

      iter #   1 total cpu time :     9.0 secs   av.it.:   5.2
      thresh= 1.000E-02 alpha_mix =  0.700 |ddv_scf|^2 =  1.859E-08

      iter #   2 total cpu time :     9.7 secs   av.it.:  11.6
      thresh= 1.364E-05 alpha_mix =  0.700 |ddv_scf|^2 =  1.096E-09

      iter #   3 total cpu time :    10.4 secs   av.it.:  11.1
      thresh= 3.310E-06 alpha_mix =  0.700 |ddv_scf|^2 =  6.778E-11

      iter #   4 total cpu time :    11.0 secs   av.it.:  11.3
      thresh= 8.233E-07 alpha_mix =  0.700 |ddv_scf|^2 =  2.609E-13

     End of self-consistent calculation

     Convergence has been achieved 

     Number of q in the star =    1
     List of q in the star:
          1   0.000000000   0.000000000   0.000000000

          Dielectric constant in cartesian axis 

          (      13.897525439       0.000000000      -0.000000000 )
          (       0.000000000      13.897525439      -0.000000000 )
          (      -0.000000000       0.000000000      13.897525439 )

          Effective charges (d Force / dE) in cartesian axis

           atom      1   Si 
      Ex  (       -0.03914       -0.00000        0.00000 )
      Ey  (       -0.00000       -0.03914        0.00000 )
      Ez  (        0.00000        0.00000       -0.03914 )
           atom      2   Si 
      Ex  (       -0.03914       -0.00000       -0.00000 )
      Ey  (       -0.00000       -0.03914        0.00000 )
      Ez  (       -0.00000        0.00000       -0.03914 )

          Effective charges (d P / du) in cartesian axis 

           atom      1   Si 
      Px  (       -0.07203       -0.00000       -0.00000 )
      Py  (       -0.00000       -0.07203        0.00000 )
      Pz  (       -0.00000        0.00000       -0.07203 )
           atom      2   Si 
      Px  (       -0.07203       -0.00000       -0.00000 )
      Py  (       -0.00000       -0.07203        0.00000 )
      Pz  (       -0.00000        0.00000       -0.07203 )

     Diagonalizing the dynamical matrix

     q = (    0.000000000   0.000000000   0.000000000 ) 

 **************************************************************************
     freq (    1) =      -0.468226 [THz] =     -15.618350 [cm-1]
     freq (    2) =      -0.468226 [THz] =     -15.618350 [cm-1]
     freq (    3) =      -0.468226 [THz] =     -15.618350 [cm-1]
     freq (    4) =      15.222112 [THz] =     507.755006 [cm-1]
     freq (    5) =      15.222112 [THz] =     507.755006 [cm-1]
     freq (    6) =      15.222112 [THz] =     507.755006 [cm-1]
 **************************************************************************

     Mode symmetry, O_h (m-3m)  point group:

     freq (  1 -  3) =        -15.6  [cm-1]   --> T_1u G_15  G_4- I  
     freq (  4 -  6) =        507.8  [cm-1]   --> T_2g G_25' G_5+ R  

     Calculation of q =   -0.2500000   0.2500000  -0.2500000

   Info: using nr1, nr2, nr3 values from input

   Info: using nr1, nr2, nr3 values from input

     Parallelization info
     --------------------
     sticks:   dense  smooth     PW     G-vecs:    dense   smooth      PW
     Min         217     108     37                 4287     1495     309
     Max         218     109     38                 4289     1498     312
     Sum         871     433    151                17153     5985    1243



     bravais-lattice index     =            2
     lattice parameter (alat)  =      10.2980  a.u.
     unit-cell volume          =     273.0226 (a.u.)^3
     number of atoms/cell      =            2
     number of atomic types    =            1
     number of electrons       =         8.00
     number of Kohn-Sham states=            4
     kinetic-energy cutoff     =      30.0000  Ry
     charge density cutoff     =     240.0000  Ry
     Exchange-correlation      = SLA  PW   PBE  PBE ( 1  4  3  4 0 0)

     celldm(1)=  10.298000  celldm(2)=   0.000000  celldm(3)=   0.000000
     celldm(4)=   0.000000  celldm(5)=   0.000000  celldm(6)=   0.000000

     crystal axes: (cart. coord. in units of alat)
               a(1) = (  -0.500000   0.000000   0.500000 )  
               a(2) = (   0.000000   0.500000   0.500000 )  
               a(3) = (  -0.500000   0.500000   0.000000 )  

     reciprocal axes: (cart. coord. in units 2 pi/alat)
               b(1) = ( -1.000000 -1.000000  1.000000 )  
               b(2) = (  1.000000  1.000000  1.000000 )  
               b(3) = ( -1.000000  1.000000 -1.000000 )  


     PseudoPot. # 1 for Si read from file:
     /home/s1333534/quantum_espresso/qe-6.1/pseudo/si_pbe_v1.uspp.F.UPF.txt
     MD5 check sum: a056efeee980c13900f22a371efd63c1
     Pseudo is Ultrasoft + core correction, Zval =  4.0
     Generated by new atomic code, or converted to UPF format
     Using radial grid of  899 points,  6 beta functions with: 
                l(1) =   0
                l(2) =   0
                l(3) =   1
                l(4) =   1
                l(5) =   2
                l(6) =   2
     Q(r) pseudized with  8 coefficients,  rinner =    0.900   0.900   0.900
                                                       0.900   0.900

     atomic species   valence    mass     pseudopotential
        Si             4.00    28.08600     Si( 1.00)

     48 Sym. Ops., with inversion, found



   Cartesian axes

     site n.     atom                  positions (alat units)
         1           Si  tau(   1) = (   0.0000000   0.0000000   0.0000000  )
         2           Si  tau(   2) = (   0.2500000   0.2500000   0.2500000  )

     number of k points=   120

     Number of k-points >= 100: set verbosity='high' to print them.

     Dense  grid:    17153 G-vectors     FFT dimensions: (  36,  36,  36)

     Smooth grid:     5985 G-vectors     FFT dimensions: (  25,  25,  25)

     Estimated max dynamical RAM per process >       1.51MB

     Estimated total allocated dynamical RAM >       6.05MB

     The potential is recalculated from file :
     ./_ph0/silicon.10.298.save/charge-density.dat

     Starting wfc are    8 atomic wfcs

     Band Structure Calculation
     Davidson diagonalization with overlap

     ethr =  1.25E-10,  avg # of iterations = 12.2

     total cpu time spent up to now is        1.4 secs

     End of band structure calculation

     Number of k-points >= 100: set verbosity='high' to print the bands.

     highest occupied level (ev):     5.7997

     Writing output data file silicon.10.298.save

                                                                                

     bravais-lattice index     =            2
     lattice parameter (alat)  =      10.2980  a.u.
     unit-cell volume          =     273.0226 (a.u.)^3
     number of atoms/cell      =            2
     number of atomic types    =            1
     kinetic-energy cut-off    =      30.0000  Ry
     charge density cut-off    =     240.0000  Ry
     convergence threshold     =      1.0E-12
     beta                      =       0.7000
     number of iterations used =            4
     Exchange-correlation      = SLA  PW   PBE  PBE ( 1  4  3  4 0 0)


     celldm(1)=   10.29800  celldm(2)=    0.00000  celldm(3)=    0.00000
     celldm(4)=    0.00000  celldm(5)=    0.00000  celldm(6)=    0.00000

     crystal axes: (cart. coord. in units of alat)
               a(1) = ( -0.5000  0.0000  0.5000 )  
               a(2) = (  0.0000  0.5000  0.5000 )  
               a(3) = ( -0.5000  0.5000  0.0000 )  

     reciprocal axes: (cart. coord. in units 2 pi/alat)
               b(1) = ( -1.0000 -1.0000  1.0000 )  
               b(2) = (  1.0000  1.0000  1.0000 )  
               b(3) = ( -1.0000  1.0000 -1.0000 )  


     Atoms inside the unit cell: 

     Cartesian axes

     site n.  atom      mass           positions (alat units)
        1     Si  28.0860   tau(    1) = (    0.00000    0.00000    0.00000  )
        2     Si  28.0860   tau(    2) = (    0.25000    0.25000    0.25000  )

     Computing dynamical matrix for 
                    q = (  -0.2500000   0.2500000  -0.2500000 )

      6 Sym.Ops. (no q -> -q+G )


     G cutoff =  644.6994  (   4288 G-vectors)     FFT grid: ( 36, 36, 36)
     G cutoff =  322.3497  (   1496 G-vectors)  smooth grid: ( 25, 25, 25)
     number of k points=   120

     PseudoPot. # 1 for Si read from file:
     /home/s1333534/quantum_espresso/qe-6.1/pseudo/si_pbe_v1.uspp.F.UPF.txt
     MD5 check sum: a056efeee980c13900f22a371efd63c1
     Pseudo is Ultrasoft + core correction, Zval =  4.0
     Generated by new atomic code, or converted to UPF format
     Using radial grid of  899 points,  6 beta functions with: 
                l(1) =   0
                l(2) =   0
                l(3) =   1
                l(4) =   1
                l(5) =   2
                l(6) =   2
     Q(r) pseudized with  8 coefficients,  rinner =    0.900   0.900   0.900
                                                       0.900   0.900

     Mode symmetry, C_3v (3m)   point group:


     Atomic displacements:
     There are   4 irreducible representations

     Representation     1      1 modes -A_1  L_1  To be done

     Representation     2      1 modes -A_1  L_1  To be done

     Representation     3      2 modes -E    L_3  To be done

     Representation     4      2 modes -E    L_3  To be done



     Alpha used in Ewald sum =   2.5000
     PHONON       :    10.59s CPU        14.33s WALL



     Representation #  1 mode #   1

     Self-consistent Calculation

      iter #   1 total cpu time :    14.8 secs   av.it.:   5.9
      thresh= 1.000E-02 alpha_mix =  0.700 |ddv_scf|^2 =  4.306E-04

      iter #   2 total cpu time :    15.3 secs   av.it.:   9.0
      thresh= 2.075E-03 alpha_mix =  0.700 |ddv_scf|^2 =  6.538E-03

      iter #   3 total cpu time :    15.9 secs   av.it.:   6.9
      thresh= 8.086E-03 alpha_mix =  0.700 |ddv_scf|^2 =  2.720E-07

      iter #   4 total cpu time :    16.6 secs   av.it.:   9.6
      thresh= 5.216E-05 alpha_mix =  0.700 |ddv_scf|^2 =  1.781E-08

      iter #   5 total cpu time :    17.3 secs   av.it.:   9.6
      thresh= 1.334E-05 alpha_mix =  0.700 |ddv_scf|^2 =  3.315E-10

      iter #   6 total cpu time :    17.9 secs   av.it.:   9.7
      thresh= 1.821E-06 alpha_mix =  0.700 |ddv_scf|^2 =  1.065E-09

      iter #   7 total cpu time :    18.5 secs   av.it.:   7.6
      thresh= 3.263E-06 alpha_mix =  0.700 |ddv_scf|^2 =  3.834E-11

      iter #   8 total cpu time :    19.2 secs   av.it.:   9.3
      thresh= 6.192E-07 alpha_mix =  0.700 |ddv_scf|^2 =  4.865E-13

     End of self-consistent calculation

     Convergence has been achieved 


     Representation #  2 mode #   2

     Self-consistent Calculation

      iter #   1 total cpu time :    19.8 secs   av.it.:   5.9
      thresh= 1.000E-02 alpha_mix =  0.700 |ddv_scf|^2 =  4.306E-04

      iter #   2 total cpu time :    20.3 secs   av.it.:   9.0
      thresh= 2.075E-03 alpha_mix =  0.700 |ddv_scf|^2 =  6.538E-03

      iter #   3 total cpu time :    20.9 secs   av.it.:   6.9
      thresh= 8.086E-03 alpha_mix =  0.700 |ddv_scf|^2 =  2.720E-07

      iter #   4 total cpu time :    21.5 secs   av.it.:   9.6
      thresh= 5.216E-05 alpha_mix =  0.700 |ddv_scf|^2 =  1.781E-08

      iter #   5 total cpu time :    22.1 secs   av.it.:   9.6
      thresh= 1.334E-05 alpha_mix =  0.700 |ddv_scf|^2 =  3.315E-10

      iter #   6 total cpu time :    22.7 secs   av.it.:   9.7
      thresh= 1.821E-06 alpha_mix =  0.700 |ddv_scf|^2 =  1.065E-09

      iter #   7 total cpu time :    23.2 secs   av.it.:   7.6
      thresh= 3.263E-06 alpha_mix =  0.700 |ddv_scf|^2 =  3.834E-11

      iter #   8 total cpu time :    23.8 secs   av.it.:   9.3
      thresh= 6.192E-07 alpha_mix =  0.700 |ddv_scf|^2 =  4.865E-13

     End of self-consistent calculation

     Convergence has been achieved 


     Representation #  3 modes #   3  4

     Self-consistent Calculation

      iter #   1 total cpu time :    24.7 secs   av.it.:   5.2
      thresh= 1.000E-02 alpha_mix =  0.700 |ddv_scf|^2 =  6.636E-08

      iter #   2 total cpu time :    25.9 secs   av.it.:  11.4
      thresh= 2.576E-05 alpha_mix =  0.700 |ddv_scf|^2 =  4.266E-09

      iter #   3 total cpu time :    27.2 secs   av.it.:  11.1
      thresh= 6.532E-06 alpha_mix =  0.700 |ddv_scf|^2 =  2.260E-10

      iter #   4 total cpu time :    28.4 secs   av.it.:  11.0
      thresh= 1.503E-06 alpha_mix =  0.700 |ddv_scf|^2 =  8.523E-13

     End of self-consistent calculation

     Convergence has been achieved 


     Representation #  4 modes #   5  6

     Self-consistent Calculation

      iter #   1 total cpu time :    29.3 secs   av.it.:   5.2
      thresh= 1.000E-02 alpha_mix =  0.700 |ddv_scf|^2 =  6.637E-08

      iter #   2 total cpu time :    30.6 secs   av.it.:  11.4
      thresh= 2.576E-05 alpha_mix =  0.700 |ddv_scf|^2 =  4.266E-09

      iter #   3 total cpu time :    31.8 secs   av.it.:  11.2
      thresh= 6.531E-06 alpha_mix =  0.700 |ddv_scf|^2 =  2.259E-10

      iter #   4 total cpu time :    33.0 secs   av.it.:  11.0
      thresh= 1.503E-06 alpha_mix =  0.700 |ddv_scf|^2 =  8.564E-13

     End of self-consistent calculation

     Convergence has been achieved 

     Number of q in the star =    8
     List of q in the star:
          1  -0.250000000   0.250000000  -0.250000000
          2   0.250000000  -0.250000000  -0.250000000
          3   0.250000000  -0.250000000   0.250000000
          4   0.250000000   0.250000000   0.250000000
          5  -0.250000000  -0.250000000  -0.250000000
          6  -0.250000000  -0.250000000   0.250000000
          7  -0.250000000   0.250000000   0.250000000
          8   0.250000000   0.250000000  -0.250000000

     Diagonalizing the dynamical matrix

     q = (   -0.250000000   0.250000000  -0.250000000 ) 

 **************************************************************************
     freq (    1) =       2.765717 [THz] =      92.254374 [cm-1]
     freq (    2) =       2.765717 [THz] =      92.254374 [cm-1]
     freq (    3) =       6.802717 [THz] =     226.914227 [cm-1]
     freq (    4) =      14.370304 [THz] =     479.341754 [cm-1]
     freq (    5) =      14.661624 [THz] =     489.059139 [cm-1]
     freq (    6) =      14.661624 [THz] =     489.059139 [cm-1]
 **************************************************************************

     Mode symmetry, C_3v (3m)   point group:

     freq (  1 -  2) =         92.3  [cm-1]   --> E    L_3           
     freq (  3 -  3) =        226.9  [cm-1]   --> A_1  L_1           
     freq (  4 -  4) =        479.3  [cm-1]   --> A_1  L_1           
     freq (  5 -  6) =        489.1  [cm-1]   --> E    L_3           

     Calculation of q =    0.5000000  -0.5000000   0.5000000

   Info: using nr1, nr2, nr3 values from input

   Info: using nr1, nr2, nr3 values from input

     Parallelization info
     --------------------
     sticks:   dense  smooth     PW     G-vecs:    dense   smooth      PW
     Min         217     108     40                 4288     1495     351
     Max         219     109     41                 4289     1498     354
     Sum         871     433    163                17153     5985    1411



     bravais-lattice index     =            2
     lattice parameter (alat)  =      10.2980  a.u.
     unit-cell volume          =     273.0226 (a.u.)^3
     number of atoms/cell      =            2
     number of atomic types    =            1
     number of electrons       =         8.00
     number of Kohn-Sham states=            4
     kinetic-energy cutoff     =      30.0000  Ry
     charge density cutoff     =     240.0000  Ry
     Exchange-correlation      = SLA  PW   PBE  PBE ( 1  4  3  4 0 0)

     celldm(1)=  10.298000  celldm(2)=   0.000000  celldm(3)=   0.000000
     celldm(4)=   0.000000  celldm(5)=   0.000000  celldm(6)=   0.000000

     crystal axes: (cart. coord. in units of alat)
               a(1) = (  -0.500000   0.000000   0.500000 )  
               a(2) = (   0.000000   0.500000   0.500000 )  
               a(3) = (  -0.500000   0.500000   0.000000 )  

     reciprocal axes: (cart. coord. in units 2 pi/alat)
               b(1) = ( -1.000000 -1.000000  1.000000 )  
               b(2) = (  1.000000  1.000000  1.000000 )  
               b(3) = ( -1.000000  1.000000 -1.000000 )  


     PseudoPot. # 1 for Si read from file:
     /home/s1333534/quantum_espresso/qe-6.1/pseudo/si_pbe_v1.uspp.F.UPF.txt
     MD5 check sum: a056efeee980c13900f22a371efd63c1
     Pseudo is Ultrasoft + core correction, Zval =  4.0
     Generated by new atomic code, or converted to UPF format
     Using radial grid of  899 points,  6 beta functions with: 
                l(1) =   0
                l(2) =   0
                l(3) =   1
                l(4) =   1
                l(5) =   2
                l(6) =   2
     Q(r) pseudized with  8 coefficients,  rinner =    0.900   0.900   0.900
                                                       0.900   0.900

     atomic species   valence    mass     pseudopotential
        Si             4.00    28.08600     Si( 1.00)

     48 Sym. Ops., with inversion, found



   Cartesian axes

     site n.     atom                  positions (alat units)
         1           Si  tau(   1) = (   0.0000000   0.0000000   0.0000000  )
         2           Si  tau(   2) = (   0.2500000   0.2500000   0.2500000  )

     number of k points=    60
                       cart. coord. in units 2pi/alat
        k(    1) = (  -0.1250000   0.1250000   0.1250000), wk =   0.0468750
        k(    2) = (   0.3750000  -0.3750000   0.6250000), wk =   0.0000000
        k(    3) = (  -0.3750000   0.3750000  -0.1250000), wk =   0.0468750
        k(    4) = (   0.1250000  -0.1250000   0.3750000), wk =   0.0000000
        k(    5) = (   0.3750000  -0.3750000   0.6250000), wk =   0.0468750
        k(    6) = (   0.8750000  -0.8750000   1.1250000), wk =   0.0000000
        k(    7) = (   0.1250000  -0.1250000   0.3750000), wk =   0.0468750
        k(    8) = (   0.6250000  -0.6250000   0.8750000), wk =   0.0000000
        k(    9) = (  -0.1250000   0.6250000   0.1250000), wk =   0.0937500
        k(   10) = (   0.3750000   0.1250000   0.6250000), wk =   0.0000000
        k(   11) = (   0.6250000  -0.1250000   0.8750000), wk =   0.0937500
        k(   12) = (   1.1250000  -0.6250000   1.3750000), wk =   0.0000000
        k(   13) = (   0.3750000   0.1250000   0.6250000), wk =   0.0937500
        k(   14) = (   0.8750000  -0.3750000   1.1250000), wk =   0.0000000
        k(   15) = (  -0.1250000  -0.8750000   0.1250000), wk =   0.0937500
        k(   16) = (   0.3750000  -1.3750000   0.6250000), wk =   0.0000000
        k(   17) = (  -0.3750000   0.3750000   0.3750000), wk =   0.0468750
        k(   18) = (   0.1250000  -0.1250000   0.8750000), wk =   0.0000000
        k(   19) = (   0.3750000  -0.3750000   1.1250000), wk =   0.0468750
        k(   20) = (   0.8750000  -0.8750000   1.6250000), wk =   0.0000000
        k(   21) = (   0.1250000  -0.1250000   0.1250000), wk =   0.0156250
        k(   22) = (   0.6250000  -0.6250000   0.6250000), wk =   0.0000000
        k(   23) = (  -0.3750000  -0.3750000  -0.1250000), wk =   0.0937500
        k(   24) = (   0.1250000  -0.8750000   0.3750000), wk =   0.0000000
        k(   25) = (  -0.1250000  -0.3750000   0.3750000), wk =   0.0468750
        k(   26) = (   0.3750000  -0.8750000   0.8750000), wk =   0.0000000
        k(   27) = (   0.3750000   0.3750000   0.6250000), wk =   0.0937500
        k(   28) = (   0.8750000  -0.1250000   1.1250000), wk =   0.0000000
        k(   29) = (   0.6250000   0.3750000  -0.3750000), wk =   0.0468750
        k(   30) = (   1.1250000  -0.1250000   0.1250000), wk =   0.0000000
        k(   31) = (   0.1250000   0.1250000   0.3750000), wk =   0.0937500
        k(   32) = (   0.6250000  -0.3750000   0.8750000), wk =   0.0000000
        k(   33) = (   0.3750000   0.1250000  -0.1250000), wk =   0.0468750
        k(   34) = (   0.8750000  -0.3750000   0.3750000), wk =   0.0000000
        k(   35) = (  -0.1250000  -0.6250000  -0.1250000), wk =   0.0468750
        k(   36) = (   0.3750000  -1.1250000   0.3750000), wk =   0.0000000
        k(   37) = (   0.1250000  -0.6250000   0.1250000), wk =   0.0468750
        k(   38) = (   0.6250000  -1.1250000   0.6250000), wk =   0.0000000
        k(   39) = (   0.6250000   0.1250000   0.8750000), wk =   0.0937500
        k(   40) = (   1.1250000  -0.3750000   1.3750000), wk =   0.0000000
        k(   41) = (  -0.8750000   0.1250000   0.6250000), wk =   0.0937500
        k(   42) = (  -0.3750000  -0.3750000   1.1250000), wk =   0.0000000
        k(   43) = (   0.8750000   0.1250000  -0.6250000), wk =   0.0937500
        k(   44) = (   1.3750000  -0.3750000  -0.1250000), wk =   0.0000000
        k(   45) = (   0.3750000  -0.1250000   0.6250000), wk =   0.0937500
        k(   46) = (   0.8750000  -0.6250000   1.1250000), wk =   0.0000000
        k(   47) = (  -0.6250000  -0.1250000   0.3750000), wk =   0.0937500
        k(   48) = (  -0.1250000  -0.6250000   0.8750000), wk =   0.0000000
        k(   49) = (   0.6250000  -0.1250000  -0.3750000), wk =   0.0937500
        k(   50) = (   1.1250000  -0.6250000   0.1250000), wk =   0.0000000
        k(   51) = (  -0.1250000   0.8750000  -0.1250000), wk =   0.0468750
        k(   52) = (   0.3750000   0.3750000   0.3750000), wk =   0.0000000
        k(   53) = (   0.1250000   0.8750000   0.1250000), wk =   0.0468750
        k(   54) = (   0.6250000   0.3750000   0.6250000), wk =   0.0000000
        k(   55) = (   0.3750000  -0.3750000   0.3750000), wk =   0.0156250
        k(   56) = (   0.8750000  -0.8750000   0.8750000), wk =   0.0000000
        k(   57) = (   0.3750000   0.3750000   1.1250000), wk =   0.0937500
        k(   58) = (   0.8750000  -0.1250000   1.6250000), wk =   0.0000000
        k(   59) = (   1.1250000   0.3750000  -0.3750000), wk =   0.0468750
        k(   60) = (   1.6250000  -0.1250000   0.1250000), wk =   0.0000000

     Dense  grid:    17153 G-vectors     FFT dimensions: (  36,  36,  36)

     Smooth grid:     5985 G-vectors     FFT dimensions: (  25,  25,  25)

     Estimated max dynamical RAM per process >       1.51MB

     Estimated total allocated dynamical RAM >       6.05MB

     The potential is recalculated from file :
     ./_ph0/silicon.10.298.save/charge-density.dat

     Starting wfc are    8 atomic wfcs

     Band Structure Calculation
     Davidson diagonalization with overlap

     ethr =  1.25E-10,  avg # of iterations = 12.2

     total cpu time spent up to now is        2.3 secs

     End of band structure calculation

          k =-0.1250 0.1250 0.1250 (   752 PWs)   bands (ev):

    -5.5999   4.4907   5.7997   5.7997

          k = 0.3750-0.3750 0.6250 (   759 PWs)   bands (ev):

    -3.4111  -0.6174   3.8226   4.5378

          k =-0.3750 0.3750-0.1250 (   757 PWs)   bands (ev):

    -4.5641   1.4818   3.7971   5.3171

          k = 0.1250-0.1250 0.3750 (   765 PWs)   bands (ev):

    -5.0675   2.8702   4.7816   4.8514

          k = 0.3750-0.3750 0.6250 (   759 PWs)   bands (ev):

    -3.4111  -0.6174   3.8226   4.5378

          k = 0.8750-0.8750 1.1250 (   752 PWs)   bands (ev):

    -5.5999   4.4907   5.7997   5.7997

          k = 0.1250-0.1250 0.3750 (   765 PWs)   bands (ev):

    -5.0675   2.8702   4.7816   4.8514

          k = 0.6250-0.6250 0.8750 (   757 PWs)   bands (ev):

    -4.5641   1.4818   3.7971   5.3171

          k =-0.1250 0.6250 0.1250 (   760 PWs)   bands (ev):

    -4.0271   1.1566   3.4431   3.9002

          k = 0.3750 0.1250 0.6250 (   759 PWs)   bands (ev):

    -3.6068   0.2704   2.7973   4.1770

          k = 0.6250-0.1250 0.8750 (   751 PWs)   bands (ev):

    -2.3703  -0.8193   2.0723   3.1600

          k = 1.1250-0.6250 1.3750 (   757 PWs)   bands (ev):

    -4.5641   1.4818   3.7971   5.3171

          k = 0.3750 0.1250 0.6250 (   759 PWs)   bands (ev):

    -3.6068   0.2704   2.7973   4.1770

          k = 0.8750-0.3750 1.1250 (   760 PWs)   bands (ev):

    -4.0271   1.1566   3.4431   3.9002

          k =-0.1250-0.8750 0.1250 (   759 PWs)   bands (ev):

    -2.5419  -0.7198   2.6890   3.4296

          k = 0.3750-1.3750 0.6250 (   759 PWs)   bands (ev):

    -3.4111  -0.6174   3.8226   4.5378

          k =-0.3750 0.3750 0.3750 (   763 PWs)   bands (ev):

    -4.1263   0.1767   5.0073   5.0073

          k = 0.1250-0.1250 0.8750 (   759 PWs)   bands (ev):

    -2.5419  -0.7198   2.6890   3.4296

          k = 0.3750-0.3750 1.1250 (   759 PWs)   bands (ev):

    -2.9114  -0.5221   2.1349   4.2174

          k = 0.8750-0.8750 1.6250 (   760 PWs)   bands (ev):

    -4.0271   1.1566   3.4431   3.9002

          k = 0.1250-0.1250 0.1250 (   752 PWs)   bands (ev):

    -5.5999   4.4907   5.7997   5.7997

          k = 0.6250-0.6250 0.6250 (   763 PWs)   bands (ev):

    -4.1263   0.1767   5.0073   5.0073

          k =-0.3750-0.3750-0.1250 (   757 PWs)   bands (ev):

    -4.5641   1.4818   3.7971   5.3171

          k = 0.1250-0.8750 0.3750 (   751 PWs)   bands (ev):

    -2.3703  -0.8193   2.0723   3.1600

          k =-0.1250-0.3750 0.3750 (   757 PWs)   bands (ev):

    -4.5641   1.4818   3.7971   5.3171

          k = 0.3750-0.8750 0.8750 (   760 PWs)   bands (ev):

    -4.0271   1.1566   3.4431   3.9002

          k = 0.3750 0.3750 0.6250 (   759 PWs)   bands (ev):

    -3.4111  -0.6174   3.8226   4.5378

          k = 0.8750-0.1250 1.1250 (   759 PWs)   bands (ev):

    -2.5419  -0.7198   2.6890   3.4296

          k = 0.6250 0.3750-0.3750 (   759 PWs)   bands (ev):

    -3.4111  -0.6174   3.8226   4.5378

          k = 1.1250-0.1250 0.1250 (   759 PWs)   bands (ev):

    -2.5419  -0.7198   2.6890   3.4296

          k = 0.1250 0.1250 0.3750 (   765 PWs)   bands (ev):

    -5.0675   2.8702   4.7816   4.8514

          k = 0.6250-0.3750 0.8750 (   759 PWs)   bands (ev):

    -3.6068   0.2704   2.7973   4.1770

          k = 0.3750 0.1250-0.1250 (   765 PWs)   bands (ev):

    -5.0675   2.8702   4.7816   4.8514

          k = 0.8750-0.3750 0.3750 (   759 PWs)   bands (ev):

    -2.9114  -0.5221   2.1349   4.2174

          k =-0.1250-0.6250-0.1250 (   760 PWs)   bands (ev):

    -4.0271   1.1566   3.4431   3.9002

          k = 0.3750-1.1250 0.3750 (   759 PWs)   bands (ev):

    -2.9114  -0.5221   2.1349   4.2174

          k = 0.1250-0.6250 0.1250 (   760 PWs)   bands (ev):

    -4.0271   1.1566   3.4431   3.9002

          k = 0.6250-1.1250 0.6250 (   757 PWs)   bands (ev):

    -4.5641   1.4818   3.7971   5.3171

          k = 0.6250 0.1250 0.8750 (   751 PWs)   bands (ev):

    -2.3703  -0.8193   2.0723   3.1600

          k = 1.1250-0.3750 1.3750 (   759 PWs)   bands (ev):

    -3.6068   0.2704   2.7973   4.1770

          k =-0.8750 0.1250 0.6250 (   751 PWs)   bands (ev):

    -2.3703  -0.8193   2.0723   3.1600

          k =-0.3750-0.3750 1.1250 (   759 PWs)   bands (ev):

    -2.9114  -0.5221   2.1349   4.2174

          k = 0.8750 0.1250-0.6250 (   751 PWs)   bands (ev):

    -2.3703  -0.8193   2.0723   3.1600

          k = 1.3750-0.3750-0.1250 (   759 PWs)   bands (ev):

    -3.6068   0.2704   2.7973   4.1770

          k = 0.3750-0.1250 0.6250 (   759 PWs)   bands (ev):

    -3.6068   0.2704   2.7973   4.1770

          k = 0.8750-0.6250 1.1250 (   765 PWs)   bands (ev):

    -5.0675   2.8702   4.7816   4.8514

          k =-0.6250-0.1250 0.3750 (   759 PWs)   bands (ev):

    -3.6068   0.2704   2.7973   4.1770

          k =-0.1250-0.6250 0.8750 (   751 PWs)   bands (ev):

    -2.3703  -0.8193   2.0723   3.1600

          k = 0.6250-0.1250-0.3750 (   759 PWs)   bands (ev):

    -3.6068   0.2704   2.7973   4.1770

          k = 1.1250-0.6250 0.1250 (   751 PWs)   bands (ev):

    -2.3703  -0.8193   2.0723   3.1600

          k =-0.1250 0.8750-0.1250 (   759 PWs)   bands (ev):

    -2.5419  -0.7198   2.6890   3.4296

          k = 0.3750 0.3750 0.3750 (   763 PWs)   bands (ev):

    -4.1263   0.1767   5.0073   5.0073

          k = 0.1250 0.8750 0.1250 (   759 PWs)   bands (ev):

    -2.5419  -0.7198   2.6890   3.4296

          k = 0.6250 0.3750 0.6250 (   759 PWs)   bands (ev):

    -3.4111  -0.6174   3.8226   4.5378

          k = 0.3750-0.3750 0.3750 (   763 PWs)   bands (ev):

    -4.1263   0.1767   5.0073   5.0073

          k = 0.8750-0.8750 0.8750 (   752 PWs)   bands (ev):

    -5.5999   4.4907   5.7997   5.7997

          k = 0.3750 0.3750 1.1250 (   759 PWs)   bands (ev):

    -2.9114  -0.5221   2.1349   4.2174

          k = 0.8750-0.1250 1.6250 (   751 PWs)   bands (ev):

    -2.3703  -0.8193   2.0723   3.1600

          k = 1.1250 0.3750-0.3750 (   759 PWs)   bands (ev):

    -2.9114  -0.5221   2.1349   4.2174

          k = 1.6250-0.1250 0.1250 (   765 PWs)   bands (ev):

    -5.0675   2.8702   4.7816   4.8514

     highest occupied level (ev):     5.7997

     Writing output data file silicon.10.298.save

                                                                                

     bravais-lattice index     =            2
     lattice parameter (alat)  =      10.2980  a.u.
     unit-cell volume          =     273.0226 (a.u.)^3
     number of atoms/cell      =            2
     number of atomic types    =            1
     kinetic-energy cut-off    =      30.0000  Ry
     charge density cut-off    =     240.0000  Ry
     convergence threshold     =      1.0E-12
     beta                      =       0.7000
     number of iterations used =            4
     Exchange-correlation      = SLA  PW   PBE  PBE ( 1  4  3  4 0 0)


     celldm(1)=   10.29800  celldm(2)=    0.00000  celldm(3)=    0.00000
     celldm(4)=    0.00000  celldm(5)=    0.00000  celldm(6)=    0.00000

     crystal axes: (cart. coord. in units of alat)
               a(1) = ( -0.5000  0.0000  0.5000 )  
               a(2) = (  0.0000  0.5000  0.5000 )  
               a(3) = ( -0.5000  0.5000  0.0000 )  

     reciprocal axes: (cart. coord. in units 2 pi/alat)
               b(1) = ( -1.0000 -1.0000  1.0000 )  
               b(2) = (  1.0000  1.0000  1.0000 )  
               b(3) = ( -1.0000  1.0000 -1.0000 )  


     Atoms inside the unit cell: 

     Cartesian axes

     site n.  atom      mass           positions (alat units)
        1     Si  28.0860   tau(    1) = (    0.00000    0.00000    0.00000  )
        2     Si  28.0860   tau(    2) = (    0.25000    0.25000    0.25000  )

     Computing dynamical matrix for 
                    q = (   0.5000000  -0.5000000   0.5000000 )

     13 Sym.Ops. (with q -> -q+G )


     G cutoff =  644.6994  (   4288 G-vectors)     FFT grid: ( 36, 36, 36)
     G cutoff =  322.3497  (   1497 G-vectors)  smooth grid: ( 25, 25, 25)
     number of k points=    60

     PseudoPot. # 1 for Si read from file:
     /home/s1333534/quantum_espresso/qe-6.1/pseudo/si_pbe_v1.uspp.F.UPF.txt
     MD5 check sum: a056efeee980c13900f22a371efd63c1
     Pseudo is Ultrasoft + core correction, Zval =  4.0
     Generated by new atomic code, or converted to UPF format
     Using radial grid of  899 points,  6 beta functions with: 
                l(1) =   0
                l(2) =   0
                l(3) =   1
                l(4) =   1
                l(5) =   2
                l(6) =   2
     Q(r) pseudized with  8 coefficients,  rinner =    0.900   0.900   0.900
                                                       0.900   0.900


     Atomic displacements:
     There are   4 irreducible representations

     Representation     1      1 modes -  To be done

     Representation     2      1 modes -  To be done

     Representation     3      2 modes -  To be done

     Representation     4      2 modes -  To be done



     Alpha used in Ewald sum =   2.5000
     PHONON       :    27.47s CPU        35.38s WALL



     Representation #  1 mode #   1

     Self-consistent Calculation

      iter #   1 total cpu time :    35.7 secs   av.it.:   5.1
      thresh= 1.000E-02 alpha_mix =  0.700 |ddv_scf|^2 =  4.223E-06

      iter #   2 total cpu time :    36.1 secs   av.it.:   9.9
      thresh= 2.055E-04 alpha_mix =  0.700 |ddv_scf|^2 =  3.842E-06

      iter #   3 total cpu time :    36.5 secs   av.it.:   9.2
      thresh= 1.960E-04 alpha_mix =  0.700 |ddv_scf|^2 =  2.325E-09

      iter #   4 total cpu time :    36.9 secs   av.it.:   9.4
      thresh= 4.822E-06 alpha_mix =  0.700 |ddv_scf|^2 =  2.242E-11

      iter #   5 total cpu time :    37.2 secs   av.it.:   9.3
      thresh= 4.735E-07 alpha_mix =  0.700 |ddv_scf|^2 =  3.055E-13

     End of self-consistent calculation

     Convergence has been achieved 


     Representation #  2 mode #   2

     Self-consistent Calculation

      iter #   1 total cpu time :    37.7 secs   av.it.:   6.0
      thresh= 1.000E-02 alpha_mix =  0.700 |ddv_scf|^2 =  6.009E-05

      iter #   2 total cpu time :    38.1 secs   av.it.:   9.8
      thresh= 7.752E-04 alpha_mix =  0.700 |ddv_scf|^2 =  1.865E-04

      iter #   3 total cpu time :    38.5 secs   av.it.:   8.6
      thresh= 1.366E-03 alpha_mix =  0.700 |ddv_scf|^2 =  1.284E-08

      iter #   4 total cpu time :    38.9 secs   av.it.:   9.8
      thresh= 1.133E-05 alpha_mix =  0.700 |ddv_scf|^2 =  6.525E-10

      iter #   5 total cpu time :    39.3 secs   av.it.:  10.2
      thresh= 2.554E-06 alpha_mix =  0.700 |ddv_scf|^2 =  2.012E-11

      iter #   6 total cpu time :    39.7 secs   av.it.:   9.7
      thresh= 4.485E-07 alpha_mix =  0.700 |ddv_scf|^2 =  1.522E-13

     End of self-consistent calculation

     Convergence has been achieved 


     Representation #  3 modes #   3  4

     Self-consistent Calculation

      iter #   1 total cpu time :    40.3 secs   av.it.:   5.1
      thresh= 1.000E-02 alpha_mix =  0.700 |ddv_scf|^2 =  2.705E-08

      iter #   2 total cpu time :    41.0 secs   av.it.:  10.9
      thresh= 1.645E-05 alpha_mix =  0.700 |ddv_scf|^2 =  1.599E-09

      iter #   3 total cpu time :    41.9 secs   av.it.:  10.7
      thresh= 3.998E-06 alpha_mix =  0.700 |ddv_scf|^2 =  5.301E-11

      iter #   4 total cpu time :    42.6 secs   av.it.:  10.7
      thresh= 7.281E-07 alpha_mix =  0.700 |ddv_scf|^2 =  4.331E-13

     End of self-consistent calculation

     Convergence has been achieved 


     Representation #  4 modes #   5  6

     Self-consistent Calculation

      iter #   1 total cpu time :    43.3 secs   av.it.:   5.1
      thresh= 1.000E-02 alpha_mix =  0.700 |ddv_scf|^2 =  1.382E-07

      iter #   2 total cpu time :    44.1 secs   av.it.:  11.1
      thresh= 3.718E-05 alpha_mix =  0.700 |ddv_scf|^2 =  1.109E-08

      iter #   3 total cpu time :    44.9 secs   av.it.:  10.9
      thresh= 1.053E-05 alpha_mix =  0.700 |ddv_scf|^2 =  2.919E-10

      iter #   4 total cpu time :    45.5 secs   av.it.:   9.8
      thresh= 1.708E-06 alpha_mix =  0.700 |ddv_scf|^2 =  5.242E-13

     End of self-consistent calculation

     Convergence has been achieved 

     Number of q in the star =    4
     List of q in the star:
          1   0.500000000  -0.500000000   0.500000000
          2   0.500000000   0.500000000   0.500000000
          3  -0.500000000   0.500000000   0.500000000
          4   0.500000000   0.500000000  -0.500000000

     Diagonalizing the dynamical matrix

     q = (    0.500000000  -0.500000000   0.500000000 ) 

 **************************************************************************
     freq (    1) =       3.247939 [THz] =     108.339584 [cm-1]
     freq (    2) =       3.247939 [THz] =     108.339584 [cm-1]
     freq (    3) =      11.138761 [THz] =     371.549058 [cm-1]
     freq (    4) =      12.167879 [THz] =     405.876755 [cm-1]
     freq (    5) =      14.463793 [THz] =     482.460199 [cm-1]
     freq (    6) =      14.463793 [THz] =     482.460199 [cm-1]
 **************************************************************************

     Calculation of q =    0.0000000   0.5000000   0.0000000

   Info: using nr1, nr2, nr3 values from input

   Info: using nr1, nr2, nr3 values from input

     Parallelization info
     --------------------
     sticks:   dense  smooth     PW     G-vecs:    dense   smooth      PW
     Min         217     108     37                 4287     1495     309
     Max         218     109     38                 4289     1498     312
     Sum         871     433    151                17153     5985    1243



     bravais-lattice index     =            2
     lattice parameter (alat)  =      10.2980  a.u.
     unit-cell volume          =     273.0226 (a.u.)^3
     number of atoms/cell      =            2
     number of atomic types    =            1
     number of electrons       =         8.00
     number of Kohn-Sham states=            4
     kinetic-energy cutoff     =      30.0000  Ry
     charge density cutoff     =     240.0000  Ry
     Exchange-correlation      = SLA  PW   PBE  PBE ( 1  4  3  4 0 0)

     celldm(1)=  10.298000  celldm(2)=   0.000000  celldm(3)=   0.000000
     celldm(4)=   0.000000  celldm(5)=   0.000000  celldm(6)=   0.000000

     crystal axes: (cart. coord. in units of alat)
               a(1) = (  -0.500000   0.000000   0.500000 )  
               a(2) = (   0.000000   0.500000   0.500000 )  
               a(3) = (  -0.500000   0.500000   0.000000 )  

     reciprocal axes: (cart. coord. in units 2 pi/alat)
               b(1) = ( -1.000000 -1.000000  1.000000 )  
               b(2) = (  1.000000  1.000000  1.000000 )  
               b(3) = ( -1.000000  1.000000 -1.000000 )  


     PseudoPot. # 1 for Si read from file:
     /home/s1333534/quantum_espresso/qe-6.1/pseudo/si_pbe_v1.uspp.F.UPF.txt
     MD5 check sum: a056efeee980c13900f22a371efd63c1
     Pseudo is Ultrasoft + core correction, Zval =  4.0
     Generated by new atomic code, or converted to UPF format
     Using radial grid of  899 points,  6 beta functions with: 
                l(1) =   0
                l(2) =   0
                l(3) =   1
                l(4) =   1
                l(5) =   2
                l(6) =   2
     Q(r) pseudized with  8 coefficients,  rinner =    0.900   0.900   0.900
                                                       0.900   0.900

     atomic species   valence    mass     pseudopotential
        Si             4.00    28.08600     Si( 1.00)

     48 Sym. Ops., with inversion, found



   Cartesian axes

     site n.     atom                  positions (alat units)
         1           Si  tau(   1) = (   0.0000000   0.0000000   0.0000000  )
         2           Si  tau(   2) = (   0.2500000   0.2500000   0.2500000  )

     number of k points=    80
                       cart. coord. in units 2pi/alat
        k(    1) = (  -0.1250000   0.1250000   0.1250000), wk =   0.0312500
        k(    2) = (  -0.1250000   0.6250000   0.1250000), wk =   0.0000000
        k(    3) = (  -0.3750000   0.3750000  -0.1250000), wk =   0.0625000
        k(    4) = (  -0.3750000   0.8750000  -0.1250000), wk =   0.0000000
        k(    5) = (   0.3750000  -0.3750000   0.6250000), wk =   0.0625000
        k(    6) = (   0.3750000   0.1250000   0.6250000), wk =   0.0000000
        k(    7) = (   0.1250000  -0.1250000   0.3750000), wk =   0.0625000
        k(    8) = (   0.1250000   0.3750000   0.3750000), wk =   0.0000000
        k(    9) = (  -0.1250000   0.6250000   0.1250000), wk =   0.0312500
        k(   10) = (  -0.1250000   1.1250000   0.1250000), wk =   0.0000000
        k(   11) = (   0.6250000  -0.1250000   0.8750000), wk =   0.0625000
        k(   12) = (   0.6250000   0.3750000   0.8750000), wk =   0.0000000
        k(   13) = (   0.3750000   0.1250000   0.6250000), wk =   0.0625000
        k(   14) = (   0.3750000   0.6250000   0.6250000), wk =   0.0000000
        k(   15) = (  -0.1250000  -0.8750000   0.1250000), wk =   0.0312500
        k(   16) = (  -0.1250000  -0.3750000   0.1250000), wk =   0.0000000
        k(   17) = (  -0.3750000   0.3750000   0.3750000), wk =   0.0312500
        k(   18) = (  -0.3750000   0.8750000   0.3750000), wk =   0.0000000
        k(   19) = (   0.3750000  -0.3750000   1.1250000), wk =   0.0625000
        k(   20) = (   0.3750000   0.1250000   1.1250000), wk =   0.0000000
        k(   21) = (  -0.1250000  -0.1250000   0.1250000), wk =   0.0312500
        k(   22) = (  -0.1250000   0.3750000   0.1250000), wk =   0.0000000
        k(   23) = (   0.1250000  -0.3750000   0.3750000), wk =   0.0625000
        k(   24) = (   0.1250000   0.1250000   0.3750000), wk =   0.0000000
        k(   25) = (   0.3750000  -0.1250000   0.3750000), wk =   0.0312500
        k(   26) = (   0.3750000   0.3750000   0.3750000), wk =   0.0000000
        k(   27) = (   0.3750000   0.1250000   0.3750000), wk =   0.0312500
        k(   28) = (   0.3750000   0.6250000   0.3750000), wk =   0.0000000
        k(   29) = (  -0.6250000   0.3750000  -0.3750000), wk =   0.0625000
        k(   30) = (  -0.6250000   0.8750000  -0.3750000), wk =   0.0000000
        k(   31) = (  -0.3750000   0.6250000  -0.3750000), wk =   0.0312500
        k(   32) = (  -0.3750000   1.1250000  -0.3750000), wk =   0.0000000
        k(   33) = (  -0.3750000  -0.6250000  -0.3750000), wk =   0.0312500
        k(   34) = (  -0.3750000  -0.1250000  -0.3750000), wk =   0.0000000
        k(   35) = (  -0.3750000   0.1250000  -0.1250000), wk =   0.0625000
        k(   36) = (  -0.3750000   0.6250000  -0.1250000), wk =   0.0000000
        k(   37) = (  -0.1250000   0.3750000  -0.1250000), wk =   0.0312500
        k(   38) = (  -0.1250000   0.8750000  -0.1250000), wk =   0.0000000
        k(   39) = (  -0.1250000  -0.3750000  -0.1250000), wk =   0.0312500
        k(   40) = (  -0.1250000   0.1250000  -0.1250000), wk =   0.0000000
        k(   41) = (  -0.1250000  -0.6250000   0.1250000), wk =   0.0312500
        k(   42) = (  -0.1250000  -0.1250000   0.1250000), wk =   0.0000000
        k(   43) = (   0.6250000  -0.1250000  -0.1250000), wk =   0.0625000
        k(   44) = (   0.6250000   0.3750000  -0.1250000), wk =   0.0000000
        k(   45) = (   0.6250000   0.1250000   0.1250000), wk =   0.0625000
        k(   46) = (   0.6250000   0.6250000   0.1250000), wk =   0.0000000
        k(   47) = (  -0.8750000   0.1250000  -0.6250000), wk =   0.0625000
        k(   48) = (  -0.8750000   0.6250000  -0.6250000), wk =   0.0000000
        k(   49) = (  -0.1250000   0.6250000  -0.8750000), wk =   0.0625000
        k(   50) = (  -0.1250000   1.1250000  -0.8750000), wk =   0.0000000
        k(   51) = (  -0.1250000   0.8750000  -0.6250000), wk =   0.0625000
        k(   52) = (  -0.1250000   1.3750000  -0.6250000), wk =   0.0000000
        k(   53) = (  -0.1250000  -0.8750000  -0.6250000), wk =   0.0625000
        k(   54) = (  -0.1250000  -0.3750000  -0.6250000), wk =   0.0000000
        k(   55) = (   0.8750000  -0.6250000   0.1250000), wk =   0.0625000
        k(   56) = (   0.8750000  -0.1250000   0.1250000), wk =   0.0000000
        k(   57) = (  -0.6250000  -0.1250000  -0.3750000), wk =   0.0625000
        k(   58) = (  -0.6250000   0.3750000  -0.3750000), wk =   0.0000000
        k(   59) = (   0.1250000   0.3750000  -0.6250000), wk =   0.0625000
        k(   60) = (   0.1250000   0.8750000  -0.6250000), wk =   0.0000000
        k(   61) = (   0.1250000   0.6250000  -0.3750000), wk =   0.0625000
        k(   62) = (   0.1250000   1.1250000  -0.3750000), wk =   0.0000000
        k(   63) = (   0.1250000  -0.6250000  -0.3750000), wk =   0.0625000
        k(   64) = (   0.1250000  -0.1250000  -0.3750000), wk =   0.0000000
        k(   65) = (   0.6250000  -0.3750000  -0.1250000), wk =   0.0625000
        k(   66) = (   0.6250000   0.1250000  -0.1250000), wk =   0.0000000
        k(   67) = (  -0.1250000   0.8750000   0.1250000), wk =   0.0312500
        k(   68) = (  -0.1250000   1.3750000   0.1250000), wk =   0.0000000
        k(   69) = (  -0.8750000  -0.1250000  -0.1250000), wk =   0.0625000
        k(   70) = (  -0.8750000   0.3750000  -0.1250000), wk =   0.0000000
        k(   71) = (  -0.8750000   0.1250000   0.1250000), wk =   0.0625000
        k(   72) = (  -0.8750000   0.6250000   0.1250000), wk =   0.0000000
        k(   73) = (  -0.3750000  -0.3750000   0.3750000), wk =   0.0312500
        k(   74) = (  -0.3750000   0.1250000   0.3750000), wk =   0.0000000
        k(   75) = (  -1.1250000   0.3750000  -0.3750000), wk =   0.0625000
        k(   76) = (  -1.1250000   0.8750000  -0.3750000), wk =   0.0000000
        k(   77) = (  -0.3750000   1.1250000  -0.3750000), wk =   0.0312500
        k(   78) = (  -0.3750000   1.6250000  -0.3750000), wk =   0.0000000
        k(   79) = (  -0.3750000  -1.1250000  -0.3750000), wk =   0.0312500
        k(   80) = (  -0.3750000  -0.6250000  -0.3750000), wk =   0.0000000

     Dense  grid:    17153 G-vectors     FFT dimensions: (  36,  36,  36)

     Smooth grid:     5985 G-vectors     FFT dimensions: (  25,  25,  25)

     Estimated max dynamical RAM per process >       1.51MB

     Estimated total allocated dynamical RAM >       6.05MB

     The potential is recalculated from file :
     ./_ph0/silicon.10.298.save/charge-density.dat

     Starting wfc are    8 atomic wfcs

     Band Structure Calculation
     Davidson diagonalization with overlap

     ethr =  1.25E-10,  avg # of iterations = 12.2

     total cpu time spent up to now is        3.5 secs

     End of band structure calculation

          k =-0.1250 0.1250 0.1250 (   752 PWs)   bands (ev):

    -5.5999   4.4907   5.7997   5.7997

          k =-0.1250 0.6250 0.1250 (   760 PWs)   bands (ev):

    -4.0271   1.1566   3.4431   3.9002

          k =-0.3750 0.3750-0.1250 (   757 PWs)   bands (ev):

    -4.5641   1.4818   3.7971   5.3171

          k =-0.3750 0.8750-0.1250 (   751 PWs)   bands (ev):

    -2.3703  -0.8193   2.0723   3.1600

          k = 0.3750-0.3750 0.6250 (   759 PWs)   bands (ev):

    -3.4111  -0.6174   3.8226   4.5378

          k = 0.3750 0.1250 0.6250 (   759 PWs)   bands (ev):

    -3.6068   0.2704   2.7973   4.1770

          k = 0.1250-0.1250 0.3750 (   765 PWs)   bands (ev):

    -5.0675   2.8702   4.7816   4.8514

          k = 0.1250 0.3750 0.3750 (   757 PWs)   bands (ev):

    -4.5641   1.4818   3.7971   5.3171

          k =-0.1250 0.6250 0.1250 (   760 PWs)   bands (ev):

    -4.0271   1.1566   3.4431   3.9002

          k =-0.1250 1.1250 0.1250 (   759 PWs)   bands (ev):

    -2.5419  -0.7198   2.6890   3.4296

          k = 0.6250-0.1250 0.8750 (   751 PWs)   bands (ev):

    -2.3703  -0.8193   2.0723   3.1600

          k = 0.6250 0.3750 0.8750 (   759 PWs)   bands (ev):

    -3.6068   0.2704   2.7973   4.1770

          k = 0.3750 0.1250 0.6250 (   759 PWs)   bands (ev):

    -3.6068   0.2704   2.7973   4.1770

          k = 0.3750 0.6250 0.6250 (   759 PWs)   bands (ev):

    -3.4111  -0.6174   3.8226   4.5378

          k =-0.1250-0.8750 0.1250 (   759 PWs)   bands (ev):

    -2.5419  -0.7198   2.6890   3.4296

          k =-0.1250-0.3750 0.1250 (   765 PWs)   bands (ev):

    -5.0675   2.8702   4.7816   4.8514

          k =-0.3750 0.3750 0.3750 (   763 PWs)   bands (ev):

    -4.1263   0.1767   5.0073   5.0073

          k =-0.3750 0.8750 0.3750 (   759 PWs)   bands (ev):

    -2.9114  -0.5221   2.1349   4.2174

          k = 0.3750-0.3750 1.1250 (   759 PWs)   bands (ev):

    -2.9114  -0.5221   2.1349   4.2174

          k = 0.3750 0.1250 1.1250 (   751 PWs)   bands (ev):

    -2.3703  -0.8193   2.0723   3.1600

          k =-0.1250-0.1250 0.1250 (   752 PWs)   bands (ev):

    -5.5999   4.4907   5.7997   5.7997

          k =-0.1250 0.3750 0.1250 (   765 PWs)   bands (ev):

    -5.0675   2.8702   4.7816   4.8514

          k = 0.1250-0.3750 0.3750 (   757 PWs)   bands (ev):

    -4.5641   1.4818   3.7971   5.3171

          k = 0.1250 0.1250 0.3750 (   765 PWs)   bands (ev):

    -5.0675   2.8702   4.7816   4.8514

          k = 0.3750-0.1250 0.3750 (   757 PWs)   bands (ev):

    -4.5641   1.4818   3.7971   5.3171

          k = 0.3750 0.3750 0.3750 (   763 PWs)   bands (ev):

    -4.1263   0.1767   5.0073   5.0073

          k = 0.3750 0.1250 0.3750 (   757 PWs)   bands (ev):

    -4.5641   1.4818   3.7971   5.3171

          k = 0.3750 0.6250 0.3750 (   759 PWs)   bands (ev):

    -3.4111  -0.6174   3.8226   4.5378

          k =-0.6250 0.3750-0.3750 (   759 PWs)   bands (ev):

    -3.4111  -0.6174   3.8226   4.5378

          k =-0.6250 0.8750-0.3750 (   759 PWs)   bands (ev):

    -3.6068   0.2704   2.7973   4.1770

          k =-0.3750 0.6250-0.3750 (   759 PWs)   bands (ev):

    -3.4111  -0.6174   3.8226   4.5378

          k =-0.3750 1.1250-0.3750 (   759 PWs)   bands (ev):

    -2.9114  -0.5221   2.1349   4.2174

          k =-0.3750-0.6250-0.3750 (   759 PWs)   bands (ev):

    -3.4111  -0.6174   3.8226   4.5378

          k =-0.3750-0.1250-0.3750 (   757 PWs)   bands (ev):

    -4.5641   1.4818   3.7971   5.3171

          k =-0.3750 0.1250-0.1250 (   765 PWs)   bands (ev):

    -5.0675   2.8702   4.7816   4.8514

          k =-0.3750 0.6250-0.1250 (   759 PWs)   bands (ev):

    -3.6068   0.2704   2.7973   4.1770

          k =-0.1250 0.3750-0.1250 (   765 PWs)   bands (ev):

    -5.0675   2.8702   4.7816   4.8514

          k =-0.1250 0.8750-0.1250 (   759 PWs)   bands (ev):

    -2.5419  -0.7198   2.6890   3.4296

          k =-0.1250-0.3750-0.1250 (   765 PWs)   bands (ev):

    -5.0675   2.8702   4.7816   4.8514

          k =-0.1250 0.1250-0.1250 (   752 PWs)   bands (ev):

    -5.5999   4.4907   5.7997   5.7997

          k =-0.1250-0.6250 0.1250 (   760 PWs)   bands (ev):

    -4.0271   1.1566   3.4431   3.9002

          k =-0.1250-0.1250 0.1250 (   752 PWs)   bands (ev):

    -5.5999   4.4907   5.7997   5.7997

          k = 0.6250-0.1250-0.1250 (   760 PWs)   bands (ev):

    -4.0271   1.1566   3.4431   3.9002

          k = 0.6250 0.3750-0.1250 (   759 PWs)   bands (ev):

    -3.6068   0.2704   2.7973   4.1770

          k = 0.6250 0.1250 0.1250 (   760 PWs)   bands (ev):

    -4.0271   1.1566   3.4431   3.9002

          k = 0.6250 0.6250 0.1250 (   759 PWs)   bands (ev):

    -2.9114  -0.5221   2.1349   4.2174

          k =-0.8750 0.1250-0.6250 (   751 PWs)   bands (ev):

    -2.3703  -0.8193   2.0723   3.1600

          k =-0.8750 0.6250-0.6250 (   757 PWs)   bands (ev):

    -4.5641   1.4818   3.7971   5.3171

          k =-0.1250 0.6250-0.8750 (   751 PWs)   bands (ev):

    -2.3703  -0.8193   2.0723   3.1600

          k =-0.1250 1.1250-0.8750 (   759 PWs)   bands (ev):

    -2.5419  -0.7198   2.6890   3.4296

          k =-0.1250 0.8750-0.6250 (   751 PWs)   bands (ev):

    -2.3703  -0.8193   2.0723   3.1600

          k =-0.1250 1.3750-0.6250 (   759 PWs)   bands (ev):

    -2.9114  -0.5221   2.1349   4.2174

          k =-0.1250-0.8750-0.6250 (   751 PWs)   bands (ev):

    -2.3703  -0.8193   2.0723   3.1600

          k =-0.1250-0.3750-0.6250 (   759 PWs)   bands (ev):

    -3.6068   0.2704   2.7973   4.1770

          k = 0.8750-0.6250 0.1250 (   751 PWs)   bands (ev):

    -2.3703  -0.8193   2.0723   3.1600

          k = 0.8750-0.1250 0.1250 (   759 PWs)   bands (ev):

    -2.5419  -0.7198   2.6890   3.4296

          k =-0.6250-0.1250-0.3750 (   759 PWs)   bands (ev):

    -3.6068   0.2704   2.7973   4.1770

          k =-0.6250 0.3750-0.3750 (   759 PWs)   bands (ev):

    -3.4111  -0.6174   3.8226   4.5378

          k = 0.1250 0.3750-0.6250 (   759 PWs)   bands (ev):

    -3.6068   0.2704   2.7973   4.1770

          k = 0.1250 0.8750-0.6250 (   751 PWs)   bands (ev):

    -2.3703  -0.8193   2.0723   3.1600

          k = 0.1250 0.6250-0.3750 (   759 PWs)   bands (ev):

    -3.6068   0.2704   2.7973   4.1770

          k = 0.1250 1.1250-0.3750 (   751 PWs)   bands (ev):

    -2.3703  -0.8193   2.0723   3.1600

          k = 0.1250-0.6250-0.3750 (   759 PWs)   bands (ev):

    -3.6068   0.2704   2.7973   4.1770

          k = 0.1250-0.1250-0.3750 (   765 PWs)   bands (ev):

    -5.0675   2.8702   4.7816   4.8514

          k = 0.6250-0.3750-0.1250 (   759 PWs)   bands (ev):

    -3.6068   0.2704   2.7973   4.1770

          k = 0.6250 0.1250-0.1250 (   760 PWs)   bands (ev):

    -4.0271   1.1566   3.4431   3.9002

          k =-0.1250 0.8750 0.1250 (   759 PWs)   bands (ev):

    -2.5419  -0.7198   2.6890   3.4296

          k =-0.1250 1.3750 0.1250 (   760 PWs)   bands (ev):

    -4.0271   1.1566   3.4431   3.9002

          k =-0.8750-0.1250-0.1250 (   759 PWs)   bands (ev):

    -2.5419  -0.7198   2.6890   3.4296

          k =-0.8750 0.3750-0.1250 (   751 PWs)   bands (ev):

    -2.3703  -0.8193   2.0723   3.1600

          k =-0.8750 0.1250 0.1250 (   759 PWs)   bands (ev):

    -2.5419  -0.7198   2.6890   3.4296

          k =-0.8750 0.6250 0.1250 (   751 PWs)   bands (ev):

    -2.3703  -0.8193   2.0723   3.1600

          k =-0.3750-0.3750 0.3750 (   763 PWs)   bands (ev):

    -4.1263   0.1767   5.0073   5.0073

          k =-0.3750 0.1250 0.3750 (   757 PWs)   bands (ev):

    -4.5641   1.4818   3.7971   5.3171

          k =-1.1250 0.3750-0.3750 (   759 PWs)   bands (ev):

    -2.9114  -0.5221   2.1349   4.2174

          k =-1.1250 0.8750-0.3750 (   760 PWs)   bands (ev):

    -4.0271   1.1566   3.4431   3.9002

          k =-0.3750 1.1250-0.3750 (   759 PWs)   bands (ev):

    -2.9114  -0.5221   2.1349   4.2174

          k =-0.3750 1.6250-0.3750 (   763 PWs)   bands (ev):

    -4.1263   0.1767   5.0073   5.0073

          k =-0.3750-1.1250-0.3750 (   759 PWs)   bands (ev):

    -2.9114  -0.5221   2.1349   4.2174

          k =-0.3750-0.6250-0.3750 (   759 PWs)   bands (ev):

    -3.4111  -0.6174   3.8226   4.5378

     highest occupied level (ev):     5.7997

     Writing output data file silicon.10.298.save

                                                                                

     bravais-lattice index     =            2
     lattice parameter (alat)  =      10.2980  a.u.
     unit-cell volume          =     273.0226 (a.u.)^3
     number of atoms/cell      =            2
     number of atomic types    =            1
     kinetic-energy cut-off    =      30.0000  Ry
     charge density cut-off    =     240.0000  Ry
     convergence threshold     =      1.0E-12
     beta                      =       0.7000
     number of iterations used =            4
     Exchange-correlation      = SLA  PW   PBE  PBE ( 1  4  3  4 0 0)


     celldm(1)=   10.29800  celldm(2)=    0.00000  celldm(3)=    0.00000
     celldm(4)=    0.00000  celldm(5)=    0.00000  celldm(6)=    0.00000

     crystal axes: (cart. coord. in units of alat)
               a(1) = ( -0.5000  0.0000  0.5000 )  
               a(2) = (  0.0000  0.5000  0.5000 )  
               a(3) = ( -0.5000  0.5000  0.0000 )  

     reciprocal axes: (cart. coord. in units 2 pi/alat)
               b(1) = ( -1.0000 -1.0000  1.0000 )  
               b(2) = (  1.0000  1.0000  1.0000 )  
               b(3) = ( -1.0000  1.0000 -1.0000 )  


     Atoms inside the unit cell: 

     Cartesian axes

     site n.  atom      mass           positions (alat units)
        1     Si  28.0860   tau(    1) = (    0.00000    0.00000    0.00000  )
        2     Si  28.0860   tau(    2) = (    0.25000    0.25000    0.25000  )

     Computing dynamical matrix for 
                    q = (   0.0000000   0.5000000   0.0000000 )

      8 Sym.Ops. (no q -> -q+G )


     G cutoff =  644.6994  (   4288 G-vectors)     FFT grid: ( 36, 36, 36)
     G cutoff =  322.3497  (   1496 G-vectors)  smooth grid: ( 25, 25, 25)
     number of k points=    80

     PseudoPot. # 1 for Si read from file:
     /home/s1333534/quantum_espresso/qe-6.1/pseudo/si_pbe_v1.uspp.F.UPF.txt
     MD5 check sum: a056efeee980c13900f22a371efd63c1
     Pseudo is Ultrasoft + core correction, Zval =  4.0
     Generated by new atomic code, or converted to UPF format
     Using radial grid of  899 points,  6 beta functions with: 
                l(1) =   0
                l(2) =   0
                l(3) =   1
                l(4) =   1
                l(5) =   2
                l(6) =   2
     Q(r) pseudized with  8 coefficients,  rinner =    0.900   0.900   0.900
                                                       0.900   0.900

     Mode symmetry, C_4v (4mm)  point group:


     Atomic displacements:
     There are   4 irreducible representations

     Representation     1      1 modes -A_1  G_1 D_1  To be done

     Representation     2      1 modes -B_2  G_4 D_2'  To be done

     Representation     3      2 modes -E    G_5 D_5  To be done

     Representation     4      2 modes -E    G_5 D_5  To be done



     Alpha used in Ewald sum =   2.5000
     PHONON       :    37.15s CPU        48.02s WALL



     Representation #  1 mode #   1

     Self-consistent Calculation

      iter #   1 total cpu time :    48.4 secs   av.it.:   6.2
      thresh= 1.000E-02 alpha_mix =  0.700 |ddv_scf|^2 =  5.176E-04

      iter #   2 total cpu time :    48.9 secs   av.it.:   9.2
      thresh= 2.275E-03 alpha_mix =  0.700 |ddv_scf|^2 =  6.838E-03

      iter #   3 total cpu time :    49.4 secs   av.it.:   7.3
      thresh= 8.269E-03 alpha_mix =  0.700 |ddv_scf|^2 =  1.044E-08

      iter #   4 total cpu time :    50.1 secs   av.it.:  10.1
      thresh= 1.022E-05 alpha_mix =  0.700 |ddv_scf|^2 =  9.938E-10

      iter #   5 total cpu time :    50.8 secs   av.it.:   9.7
      thresh= 3.153E-06 alpha_mix =  0.700 |ddv_scf|^2 =  1.163E-10

      iter #   6 total cpu time :    51.3 secs   av.it.:   9.3
      thresh= 1.078E-06 alpha_mix =  0.700 |ddv_scf|^2 =  3.339E-13

     End of self-consistent calculation

     Convergence has been achieved 


     Representation #  2 mode #   2

     Self-consistent Calculation

      iter #   1 total cpu time :    51.8 secs   av.it.:   5.1
      thresh= 1.000E-02 alpha_mix =  0.700 |ddv_scf|^2 =  8.138E-07

      iter #   2 total cpu time :    52.3 secs   av.it.:  10.4
      thresh= 9.021E-05 alpha_mix =  0.700 |ddv_scf|^2 =  2.195E-07

      iter #   3 total cpu time :    52.8 secs   av.it.:   9.9
      thresh= 4.685E-05 alpha_mix =  0.700 |ddv_scf|^2 =  2.226E-09

      iter #   4 total cpu time :    53.2 secs   av.it.:  10.1
      thresh= 4.719E-06 alpha_mix =  0.700 |ddv_scf|^2 =  8.539E-11

      iter #   5 total cpu time :    53.7 secs   av.it.:  10.3
      thresh= 9.241E-07 alpha_mix =  0.700 |ddv_scf|^2 =  5.158E-13

     End of self-consistent calculation

     Convergence has been achieved 


     Representation #  3 modes #   3  4

     Self-consistent Calculation

      iter #   1 total cpu time :    54.5 secs   av.it.:   5.2
      thresh= 1.000E-02 alpha_mix =  0.700 |ddv_scf|^2 =  1.444E-07

      iter #   2 total cpu time :    55.4 secs   av.it.:  11.5
      thresh= 3.800E-05 alpha_mix =  0.700 |ddv_scf|^2 =  1.989E-08

      iter #   3 total cpu time :    56.3 secs   av.it.:  11.1
      thresh= 1.410E-05 alpha_mix =  0.700 |ddv_scf|^2 =  3.352E-10

      iter #   4 total cpu time :    57.1 secs   av.it.:  10.7
      thresh= 1.831E-06 alpha_mix =  0.700 |ddv_scf|^2 =  7.773E-13

     End of self-consistent calculation

     Convergence has been achieved 


     Representation #  4 modes #   5  6

     Self-consistent Calculation

      iter #   1 total cpu time :    57.9 secs   av.it.:   5.3
      thresh= 1.000E-02 alpha_mix =  0.700 |ddv_scf|^2 =  1.324E-07

      iter #   2 total cpu time :    58.8 secs   av.it.:  11.4
      thresh= 3.639E-05 alpha_mix =  0.700 |ddv_scf|^2 =  1.775E-08

      iter #   3 total cpu time :    59.7 secs   av.it.:  11.2
      thresh= 1.332E-05 alpha_mix =  0.700 |ddv_scf|^2 =  3.435E-10

      iter #   4 total cpu time :    60.6 secs   av.it.:  11.0
      thresh= 1.853E-06 alpha_mix =  0.700 |ddv_scf|^2 =  8.382E-13

     End of self-consistent calculation

     Convergence has been achieved 

     Number of q in the star =    6
     List of q in the star:
          1   0.000000000   0.500000000   0.000000000
          2   0.000000000  -0.500000000   0.000000000
          3   0.500000000   0.000000000   0.000000000
          4   0.000000000   0.000000000   0.500000000
          5   0.000000000   0.000000000  -0.500000000
          6  -0.500000000   0.000000000   0.000000000

     Diagonalizing the dynamical matrix

     q = (    0.000000000   0.500000000   0.000000000 ) 

 **************************************************************************
     freq (    1) =       3.746414 [THz] =     124.966930 [cm-1]
     freq (    2) =       3.746414 [THz] =     124.966930 [cm-1]
     freq (    3) =       7.137134 [THz] =     238.069148 [cm-1]
     freq (    4) =      14.004038 [THz] =     467.124430 [cm-1]
     freq (    5) =      14.004038 [THz] =     467.124430 [cm-1]
     freq (    6) =      14.603224 [THz] =     487.111106 [cm-1]
 **************************************************************************

     Mode symmetry, C_4v (4mm)  point group:

     freq (  1 -  2) =        125.0  [cm-1]   --> E    G_5 D_5       
     freq (  3 -  3) =        238.1  [cm-1]   --> A_1  G_1 D_1       
     freq (  4 -  5) =        467.1  [cm-1]   --> E    G_5 D_5       
     freq (  6 -  6) =        487.1  [cm-1]   --> B_2  G_4 D_2'      

     Calculation of q =    0.7500000  -0.2500000   0.7500000

   Info: using nr1, nr2, nr3 values from input

   Info: using nr1, nr2, nr3 values from input

     Parallelization info
     --------------------
     sticks:   dense  smooth     PW     G-vecs:    dense   smooth      PW
     Min         217     108     40                 4287     1495     362
     Max         218     109     41                 4289     1498     366
     Sum         871     433    163                17153     5985    1459



     bravais-lattice index     =            2
     lattice parameter (alat)  =      10.2980  a.u.
     unit-cell volume          =     273.0226 (a.u.)^3
     number of atoms/cell      =            2
     number of atomic types    =            1
     number of electrons       =         8.00
     number of Kohn-Sham states=            4
     kinetic-energy cutoff     =      30.0000  Ry
     charge density cutoff     =     240.0000  Ry
     Exchange-correlation      = SLA  PW   PBE  PBE ( 1  4  3  4 0 0)

     celldm(1)=  10.298000  celldm(2)=   0.000000  celldm(3)=   0.000000
     celldm(4)=   0.000000  celldm(5)=   0.000000  celldm(6)=   0.000000

     crystal axes: (cart. coord. in units of alat)
               a(1) = (  -0.500000   0.000000   0.500000 )  
               a(2) = (   0.000000   0.500000   0.500000 )  
               a(3) = (  -0.500000   0.500000   0.000000 )  

     reciprocal axes: (cart. coord. in units 2 pi/alat)
               b(1) = ( -1.000000 -1.000000  1.000000 )  
               b(2) = (  1.000000  1.000000  1.000000 )  
               b(3) = ( -1.000000  1.000000 -1.000000 )  


     PseudoPot. # 1 for Si read from file:
     /home/s1333534/quantum_espresso/qe-6.1/pseudo/si_pbe_v1.uspp.F.UPF.txt
     MD5 check sum: a056efeee980c13900f22a371efd63c1
     Pseudo is Ultrasoft + core correction, Zval =  4.0
     Generated by new atomic code, or converted to UPF format
     Using radial grid of  899 points,  6 beta functions with: 
                l(1) =   0
                l(2) =   0
                l(3) =   1
                l(4) =   1
                l(5) =   2
                l(6) =   2
     Q(r) pseudized with  8 coefficients,  rinner =    0.900   0.900   0.900
                                                       0.900   0.900

     atomic species   valence    mass     pseudopotential
        Si             4.00    28.08600     Si( 1.00)

     48 Sym. Ops., with inversion, found



   Cartesian axes

     site n.     atom                  positions (alat units)
         1           Si  tau(   1) = (   0.0000000   0.0000000   0.0000000  )
         2           Si  tau(   2) = (   0.2500000   0.2500000   0.2500000  )

     number of k points=   288

     Number of k-points >= 100: set verbosity='high' to print them.

     Dense  grid:    17153 G-vectors     FFT dimensions: (  36,  36,  36)

     Smooth grid:     5985 G-vectors     FFT dimensions: (  25,  25,  25)

     Estimated max dynamical RAM per process >       1.51MB

     Estimated total allocated dynamical RAM >       6.05MB

     The potential is recalculated from file :
     ./_ph0/silicon.10.298.save/charge-density.dat

     Starting wfc are    8 atomic wfcs

     Band Structure Calculation
     Davidson diagonalization with overlap

     ethr =  1.25E-10,  avg # of iterations = 12.1

     total cpu time spent up to now is        6.6 secs

     End of band structure calculation

     Number of k-points >= 100: set verbosity='high' to print the bands.

     highest occupied level (ev):     5.7997

     Writing output data file silicon.10.298.save

                                                                                

     bravais-lattice index     =            2
     lattice parameter (alat)  =      10.2980  a.u.
     unit-cell volume          =     273.0226 (a.u.)^3
     number of atoms/cell      =            2
     number of atomic types    =            1
     kinetic-energy cut-off    =      30.0000  Ry
     charge density cut-off    =     240.0000  Ry
     convergence threshold     =      1.0E-12
     beta                      =       0.7000
     number of iterations used =            4
     Exchange-correlation      = SLA  PW   PBE  PBE ( 1  4  3  4 0 0)


     celldm(1)=   10.29800  celldm(2)=    0.00000  celldm(3)=    0.00000
     celldm(4)=    0.00000  celldm(5)=    0.00000  celldm(6)=    0.00000

     crystal axes: (cart. coord. in units of alat)
               a(1) = ( -0.5000  0.0000  0.5000 )  
               a(2) = (  0.0000  0.5000  0.5000 )  
               a(3) = ( -0.5000  0.5000  0.0000 )  

     reciprocal axes: (cart. coord. in units 2 pi/alat)
               b(1) = ( -1.0000 -1.0000  1.0000 )  
               b(2) = (  1.0000  1.0000  1.0000 )  
               b(3) = ( -1.0000  1.0000 -1.0000 )  


     Atoms inside the unit cell: 

     Cartesian axes

     site n.  atom      mass           positions (alat units)
        1     Si  28.0860   tau(    1) = (    0.00000    0.00000    0.00000  )
        2     Si  28.0860   tau(    2) = (    0.25000    0.25000    0.25000  )

     Computing dynamical matrix for 
                    q = (   0.7500000  -0.2500000   0.7500000 )

      2 Sym.Ops. (no q -> -q+G )


     G cutoff =  644.6994  (   4288 G-vectors)     FFT grid: ( 36, 36, 36)
     G cutoff =  322.3497  (   1497 G-vectors)  smooth grid: ( 25, 25, 25)
     number of k points=   288

     PseudoPot. # 1 for Si read from file:
     /home/s1333534/quantum_espresso/qe-6.1/pseudo/si_pbe_v1.uspp.F.UPF.txt
     MD5 check sum: a056efeee980c13900f22a371efd63c1
     Pseudo is Ultrasoft + core correction, Zval =  4.0
     Generated by new atomic code, or converted to UPF format
     Using radial grid of  899 points,  6 beta functions with: 
                l(1) =   0
                l(2) =   0
                l(3) =   1
                l(4) =   1
                l(5) =   2
                l(6) =   2
     Q(r) pseudized with  8 coefficients,  rinner =    0.900   0.900   0.900
                                                       0.900   0.900

     Mode symmetry, C_s (m)     point group:


     Atomic displacements:
     There are   6 irreducible representations

     Representation     1      1 modes -A'  To be done

     Representation     2      1 modes -A'  To be done

     Representation     3      1 modes -A'  To be done

     Representation     4      1 modes -A'  To be done

     Representation     5      1 modes -A''  To be done

     Representation     6      1 modes -A''  To be done



     Alpha used in Ewald sum =   2.5000
     PHONON       :  0m50.99s CPU     1m 5.71s WALL



     Representation #  1 mode #   1

     Self-consistent Calculation

      iter #   1 total cpu time :    66.6 secs   av.it.:   5.7
      thresh= 1.000E-02 alpha_mix =  0.700 |ddv_scf|^2 =  1.055E-05

      iter #   2 total cpu time :    68.0 secs   av.it.:  10.5
      thresh= 3.248E-04 alpha_mix =  0.700 |ddv_scf|^2 =  2.802E-05

      iter #   3 total cpu time :    69.2 secs   av.it.:   9.2
      thresh= 5.294E-04 alpha_mix =  0.700 |ddv_scf|^2 =  1.883E-07

      iter #   4 total cpu time :    70.5 secs   av.it.:   9.9
      thresh= 4.339E-05 alpha_mix =  0.700 |ddv_scf|^2 =  3.690E-09

      iter #   5 total cpu time :    72.0 secs   av.it.:  10.4
      thresh= 6.075E-06 alpha_mix =  0.700 |ddv_scf|^2 =  6.397E-10

      iter #   6 total cpu time :    73.4 secs   av.it.:  10.4
      thresh= 2.529E-06 alpha_mix =  0.700 |ddv_scf|^2 =  9.373E-12

      iter #   7 total cpu time :    74.7 secs   av.it.:  10.6
      thresh= 3.062E-07 alpha_mix =  0.700 |ddv_scf|^2 =  3.477E-13

     End of self-consistent calculation

     Convergence has been achieved 


     Representation #  2 mode #   2

     Self-consistent Calculation

      iter #   1 total cpu time :    75.8 secs   av.it.:   5.8
      thresh= 1.000E-02 alpha_mix =  0.700 |ddv_scf|^2 =  1.892E-05

      iter #   2 total cpu time :    77.2 secs   av.it.:  10.4
      thresh= 4.349E-04 alpha_mix =  0.700 |ddv_scf|^2 =  5.464E-05

      iter #   3 total cpu time :    78.4 secs   av.it.:   9.0
      thresh= 7.392E-04 alpha_mix =  0.700 |ddv_scf|^2 =  1.257E-07

      iter #   4 total cpu time :    79.7 secs   av.it.:  10.2
      thresh= 3.545E-05 alpha_mix =  0.700 |ddv_scf|^2 =  4.166E-09

      iter #   5 total cpu time :    81.2 secs   av.it.:  10.4
      thresh= 6.454E-06 alpha_mix =  0.700 |ddv_scf|^2 =  8.502E-10

      iter #   6 total cpu time :    82.5 secs   av.it.:  10.3
      thresh= 2.916E-06 alpha_mix =  0.700 |ddv_scf|^2 =  8.710E-12

      iter #   7 total cpu time :    83.9 secs   av.it.:  10.6
      thresh= 2.951E-07 alpha_mix =  0.700 |ddv_scf|^2 =  3.044E-13

     End of self-consistent calculation

     Convergence has been achieved 


     Representation #  3 mode #   3

     Self-consistent Calculation

      iter #   1 total cpu time :    85.1 secs   av.it.:   5.7
      thresh= 1.000E-02 alpha_mix =  0.700 |ddv_scf|^2 =  1.483E-05

      iter #   2 total cpu time :    86.7 secs   av.it.:  10.4
      thresh= 3.851E-04 alpha_mix =  0.700 |ddv_scf|^2 =  4.026E-05

      iter #   3 total cpu time :    88.0 secs   av.it.:   9.0
      thresh= 6.345E-04 alpha_mix =  0.700 |ddv_scf|^2 =  2.197E-07

      iter #   4 total cpu time :    89.2 secs   av.it.:  10.0
      thresh= 4.687E-05 alpha_mix =  0.700 |ddv_scf|^2 =  4.249E-09

      iter #   5 total cpu time :    90.5 secs   av.it.:  10.4
      thresh= 6.518E-06 alpha_mix =  0.700 |ddv_scf|^2 =  8.276E-10

      iter #   6 total cpu time :    91.8 secs   av.it.:  10.3
      thresh= 2.877E-06 alpha_mix =  0.700 |ddv_scf|^2 =  6.096E-12

      iter #   7 total cpu time :    93.1 secs   av.it.:  10.5
      thresh= 2.469E-07 alpha_mix =  0.700 |ddv_scf|^2 =  1.774E-13

     End of self-consistent calculation

     Convergence has been achieved 


     Representation #  4 mode #   4

     Self-consistent Calculation

      iter #   1 total cpu time :    94.1 secs   av.it.:   5.5
      thresh= 1.000E-02 alpha_mix =  0.700 |ddv_scf|^2 =  6.454E-06

      iter #   2 total cpu time :    95.5 secs   av.it.:  10.7
      thresh= 2.540E-04 alpha_mix =  0.700 |ddv_scf|^2 =  1.362E-05

      iter #   3 total cpu time :    96.7 secs   av.it.:   9.4
      thresh= 3.690E-04 alpha_mix =  0.700 |ddv_scf|^2 =  2.949E-07

      iter #   4 total cpu time :    98.1 secs   av.it.:   9.8
      thresh= 5.431E-05 alpha_mix =  0.700 |ddv_scf|^2 =  3.638E-09

      iter #   5 total cpu time :    99.4 secs   av.it.:  10.5
      thresh= 6.032E-06 alpha_mix =  0.700 |ddv_scf|^2 =  6.812E-10

      iter #   6 total cpu time :   100.7 secs   av.it.:  10.4
      thresh= 2.610E-06 alpha_mix =  0.700 |ddv_scf|^2 =  3.965E-12

      iter #   7 total cpu time :   102.0 secs   av.it.:  10.6
      thresh= 1.991E-07 alpha_mix =  0.700 |ddv_scf|^2 =  1.783E-13

     End of self-consistent calculation

     Convergence has been achieved 


     Representation #  5 mode #   5

     Self-consistent Calculation

      iter #   1 total cpu time :   103.0 secs   av.it.:   5.2
      thresh= 1.000E-02 alpha_mix =  0.700 |ddv_scf|^2 =  6.678E-07

      iter #   2 total cpu time :   104.3 secs   av.it.:  10.4
      thresh= 8.172E-05 alpha_mix =  0.700 |ddv_scf|^2 =  1.088E-07

      iter #   3 total cpu time :   105.6 secs   av.it.:  10.0
      thresh= 3.299E-05 alpha_mix =  0.700 |ddv_scf|^2 =  1.453E-09

      iter #   4 total cpu time :   106.8 secs   av.it.:   9.6
      thresh= 3.812E-06 alpha_mix =  0.700 |ddv_scf|^2 =  3.362E-12

      iter #   5 total cpu time :   108.1 secs   av.it.:  10.0
      thresh= 1.834E-07 alpha_mix =  0.700 |ddv_scf|^2 =  9.407E-14

     End of self-consistent calculation

     Convergence has been achieved 


     Representation #  6 mode #   6

     Self-consistent Calculation

      iter #   1 total cpu time :   109.1 secs   av.it.:   5.2
      thresh= 1.000E-02 alpha_mix =  0.700 |ddv_scf|^2 =  6.678E-07

      iter #   2 total cpu time :   110.4 secs   av.it.:  10.4
[...]
        k(   59) = (  -0.8750000   0.1250000  -0.1250000), wk =   0.0625000
        k(   60) = (  -1.3750000  -0.8750000  -0.1250000), wk =   0.0000000
        k(   61) = (  -1.1250000   0.3750000  -0.3750000), wk =   0.0625000
        k(   62) = (  -1.6250000  -0.6250000  -0.3750000), wk =   0.0000000
        k(   63) = (  -0.3750000   0.3750000   1.1250000), wk =   0.0625000
        k(   64) = (  -0.8750000  -0.6250000   1.1250000), wk =   0.0000000

     Dense  grid:    17153 G-vectors     FFT dimensions: (  36,  36,  36)

     Smooth grid:     5985 G-vectors     FFT dimensions: (  25,  25,  25)

     Estimated max dynamical RAM per process >       1.51MB

     Estimated total allocated dynamical RAM >       6.05MB

     The potential is recalculated from file :
     ./_ph0/silicon.10.298.save/charge-density.dat

     Starting wfc are    8 atomic wfcs

     Band Structure Calculation
     Davidson diagonalization with overlap

     ethr =  1.25E-10,  avg # of iterations = 12.1

     total cpu time spent up to now is       10.5 secs

     End of band structure calculation

          k =-0.1250 0.1250 0.1250 (   752 PWs)   bands (ev):

    -5.5999   4.4907   5.7997   5.7997

          k =-0.6250-0.8750 0.1250 (   751 PWs)   bands (ev):

    -2.3703  -0.8193   2.0723   3.1600

          k =-0.3750 0.3750-0.1250 (   757 PWs)   bands (ev):

    -4.5641   1.4818   3.7971   5.3171

          k =-0.8750-0.6250-0.1250 (   751 PWs)   bands (ev):

    -2.3703  -0.8193   2.0723   3.1600

          k = 0.3750-0.3750 0.6250 (   759 PWs)   bands (ev):

    -3.4111  -0.6174   3.8226   4.5378

          k =-0.1250-1.3750 0.6250 (   759 PWs)   bands (ev):

    -2.9114  -0.5221   2.1349   4.2174

          k = 0.1250-0.1250 0.3750 (   765 PWs)   bands (ev):

    -5.0675   2.8702   4.7816   4.8514

          k =-0.3750-1.1250 0.3750 (   759 PWs)   bands (ev):

    -2.9114  -0.5221   2.1349   4.2174

          k =-0.1250 0.6250 0.1250 (   760 PWs)   bands (ev):

    -4.0271   1.1566   3.4431   3.9002

          k =-0.6250-0.3750 0.1250 (   759 PWs)   bands (ev):

    -3.6068   0.2704   2.7973   4.1770

          k = 0.6250-0.1250 0.8750 (   751 PWs)   bands (ev):

    -2.3703  -0.8193   2.0723   3.1600

          k = 0.1250-1.1250 0.8750 (   759 PWs)   bands (ev):

    -2.5419  -0.7198   2.6890   3.4296

          k = 0.3750 0.1250 0.6250 (   759 PWs)   bands (ev):

    -3.6068   0.2704   2.7973   4.1770

          k =-0.1250-0.8750 0.6250 (   751 PWs)   bands (ev):

    -2.3703  -0.8193   2.0723   3.1600

          k =-0.1250-0.8750 0.1250 (   759 PWs)   bands (ev):

    -2.5419  -0.7198   2.6890   3.4296

          k =-0.6250-1.8750 0.1250 (   760 PWs)   bands (ev):

    -4.0271   1.1566   3.4431   3.9002

          k =-0.3750 0.3750 0.3750 (   763 PWs)   bands (ev):

    -4.1263   0.1767   5.0073   5.0073

          k =-0.8750-0.6250 0.3750 (   759 PWs)   bands (ev):

    -3.6068   0.2704   2.7973   4.1770

          k = 0.3750-0.3750 1.1250 (   759 PWs)   bands (ev):

    -2.9114  -0.5221   2.1349   4.2174

          k =-0.1250-1.3750 1.1250 (   751 PWs)   bands (ev):

    -2.3703  -0.8193   2.0723   3.1600

          k = 0.1250-0.3750 0.3750 (   757 PWs)   bands (ev):

    -4.5641   1.4818   3.7971   5.3171

          k =-0.3750-1.3750 0.3750 (   759 PWs)   bands (ev):

    -3.4111  -0.6174   3.8226   4.5378

          k = 0.3750-0.3750-0.1250 (   757 PWs)   bands (ev):

    -4.5641   1.4818   3.7971   5.3171

          k =-0.1250-1.3750-0.1250 (   760 PWs)   bands (ev):

    -4.0271   1.1566   3.4431   3.9002

          k =-0.6250 0.3750-0.3750 (   759 PWs)   bands (ev):

    -3.4111  -0.6174   3.8226   4.5378

          k =-1.1250-0.6250-0.3750 (   759 PWs)   bands (ev):

    -3.6068   0.2704   2.7973   4.1770

          k =-0.3750 0.3750 0.6250 (   759 PWs)   bands (ev):

    -3.4111  -0.6174   3.8226   4.5378

          k =-0.8750-0.6250 0.6250 (   757 PWs)   bands (ev):

    -4.5641   1.4818   3.7971   5.3171

          k =-0.3750 0.1250-0.1250 (   765 PWs)   bands (ev):

    -5.0675   2.8702   4.7816   4.8514

          k =-0.8750-0.8750-0.1250 (   759 PWs)   bands (ev):

    -2.5419  -0.7198   2.6890   3.4296

          k =-0.1250 0.1250 0.3750 (   765 PWs)   bands (ev):

    -5.0675   2.8702   4.7816   4.8514

          k =-0.6250-0.8750 0.3750 (   759 PWs)   bands (ev):

    -3.6068   0.2704   2.7973   4.1770

          k = 0.1250 0.6250-0.1250 (   760 PWs)   bands (ev):

    -4.0271   1.1566   3.4431   3.9002

          k =-0.3750-0.3750-0.1250 (   757 PWs)   bands (ev):

    -4.5641   1.4818   3.7971   5.3171

          k = 0.6250 0.1250-0.1250 (   760 PWs)   bands (ev):

    -4.0271   1.1566   3.4431   3.9002

          k = 0.1250-0.8750-0.1250 (   759 PWs)   bands (ev):

    -2.5419  -0.7198   2.6890   3.4296

          k =-0.8750 0.1250-0.6250 (   751 PWs)   bands (ev):

    -2.3703  -0.8193   2.0723   3.1600

          k =-1.3750-0.8750-0.6250 (   757 PWs)   bands (ev):

    -4.5641   1.4818   3.7971   5.3171

          k = 0.8750-0.1250 0.6250 (   751 PWs)   bands (ev):

    -2.3703  -0.8193   2.0723   3.1600

          k = 0.3750-1.1250 0.6250 (   759 PWs)   bands (ev):

    -3.6068   0.2704   2.7973   4.1770

          k =-0.6250 0.1250 0.8750 (   751 PWs)   bands (ev):

    -2.3703  -0.8193   2.0723   3.1600

          k =-1.1250-0.8750 0.8750 (   752 PWs)   bands (ev):

    -5.5999   4.4907   5.7997   5.7997

          k =-0.1250 0.8750 0.6250 (   751 PWs)   bands (ev):

    -2.3703  -0.8193   2.0723   3.1600

          k =-0.6250-0.1250 0.6250 (   759 PWs)   bands (ev):

    -2.9114  -0.5221   2.1349   4.2174

          k = 0.1250 0.8750-0.6250 (   751 PWs)   bands (ev):

    -2.3703  -0.8193   2.0723   3.1600

          k =-0.3750-0.1250-0.6250 (   759 PWs)   bands (ev):

    -3.6068   0.2704   2.7973   4.1770

          k =-0.6250-0.1250-0.3750 (   759 PWs)   bands (ev):

    -3.6068   0.2704   2.7973   4.1770

          k =-1.1250-1.1250-0.3750 (   760 PWs)   bands (ev):

    -4.0271   1.1566   3.4431   3.9002

          k = 0.6250 0.1250 0.3750 (   759 PWs)   bands (ev):

    -3.6068   0.2704   2.7973   4.1770

          k = 0.1250-0.8750 0.3750 (   751 PWs)   bands (ev):

    -2.3703  -0.8193   2.0723   3.1600

          k =-0.3750-0.1250 0.6250 (   759 PWs)   bands (ev):

    -3.6068   0.2704   2.7973   4.1770

          k =-0.8750-1.1250 0.6250 (   765 PWs)   bands (ev):

    -5.0675   2.8702   4.7816   4.8514

          k = 0.1250 0.6250 0.3750 (   759 PWs)   bands (ev):

    -3.6068   0.2704   2.7973   4.1770

          k =-0.3750-0.3750 0.3750 (   763 PWs)   bands (ev):

    -4.1263   0.1767   5.0073   5.0073

          k =-0.1250 0.6250-0.3750 (   759 PWs)   bands (ev):

    -3.6068   0.2704   2.7973   4.1770

          k =-0.6250-0.3750-0.3750 (   759 PWs)   bands (ev):

    -3.4111  -0.6174   3.8226   4.5378

          k = 0.1250-0.8750-0.1250 (   759 PWs)   bands (ev):

    -2.5419  -0.7198   2.6890   3.4296

          k =-0.3750-1.8750-0.1250 (   765 PWs)   bands (ev):

    -5.0675   2.8702   4.7816   4.8514

          k =-0.8750 0.1250-0.1250 (   759 PWs)   bands (ev):

    -2.5419  -0.7198   2.6890   3.4296

          k =-1.3750-0.8750-0.1250 (   751 PWs)   bands (ev):

    -2.3703  -0.8193   2.0723   3.1600

          k =-1.1250 0.3750-0.3750 (   759 PWs)   bands (ev):

    -2.9114  -0.5221   2.1349   4.2174

          k =-1.6250-0.6250-0.3750 (   759 PWs)   bands (ev):

    -3.4111  -0.6174   3.8226   4.5378

          k =-0.3750 0.3750 1.1250 (   759 PWs)   bands (ev):

    -2.9114  -0.5221   2.1349   4.2174

          k =-0.8750-0.6250 1.1250 (   765 PWs)   bands (ev):

    -5.0675   2.8702   4.7816   4.8514

     highest occupied level (ev):     5.7997

     Writing output data file silicon.10.298.save

                                                                                

     bravais-lattice index     =            2
     lattice parameter (alat)  =      10.2980  a.u.
     unit-cell volume          =     273.0226 (a.u.)^3
     number of atoms/cell      =            2
     number of atomic types    =            1
     kinetic-energy cut-off    =      30.0000  Ry
     charge density cut-off    =     240.0000  Ry
     convergence threshold     =      1.0E-12
     beta                      =       0.7000
     number of iterations used =            4
     Exchange-correlation      = SLA  PW   PBE  PBE ( 1  4  3  4 0 0)


     celldm(1)=   10.29800  celldm(2)=    0.00000  celldm(3)=    0.00000
     celldm(4)=    0.00000  celldm(5)=    0.00000  celldm(6)=    0.00000

     crystal axes: (cart. coord. in units of alat)
               a(1) = ( -0.5000  0.0000  0.5000 )  
               a(2) = (  0.0000  0.5000  0.5000 )  
               a(3) = ( -0.5000  0.5000  0.0000 )  

     reciprocal axes: (cart. coord. in units 2 pi/alat)
               b(1) = ( -1.0000 -1.0000  1.0000 )  
               b(2) = (  1.0000  1.0000  1.0000 )  
               b(3) = ( -1.0000  1.0000 -1.0000 )  


     Atoms inside the unit cell: 

     Cartesian axes

     site n.  atom      mass           positions (alat units)
        1     Si  28.0860   tau(    1) = (    0.00000    0.00000    0.00000  )
        2     Si  28.0860   tau(    2) = (    0.25000    0.25000    0.25000  )

     Computing dynamical matrix for 
                    q = (  -0.5000000  -1.0000000   0.0000000 )

      8 Sym.Ops. (no q -> -q+G )


     G cutoff =  644.6994  (   4288 G-vectors)     FFT grid: ( 36, 36, 36)
     G cutoff =  322.3497  (   1497 G-vectors)  smooth grid: ( 25, 25, 25)
     number of k points=    64

     PseudoPot. # 1 for Si read from file:
     /home/s1333534/quantum_espresso/qe-6.1/pseudo/si_pbe_v1.uspp.F.UPF.txt
     MD5 check sum: a056efeee980c13900f22a371efd63c1
     Pseudo is Ultrasoft + core correction, Zval =  4.0
     Generated by new atomic code, or converted to UPF format
     Using radial grid of  899 points,  6 beta functions with: 
                l(1) =   0
                l(2) =   0
                l(3) =   1
                l(4) =   1
                l(5) =   2
                l(6) =   2
     Q(r) pseudized with  8 coefficients,  rinner =    0.900   0.900   0.900
                                                       0.900   0.900


     Atomic displacements:
     There are   3 irreducible representations

     Representation     1      2 modes -  To be done

     Representation     2      2 modes -  To be done

     Representation     3      2 modes -  To be done



     Alpha used in Ewald sum =   2.5000
     PHONON       :  2m 2.80s CPU     2m34.14s WALL



     Representation #  1 modes #   1  2

     Self-consistent Calculation

      iter #   1 total cpu time :   154.8 secs   av.it.:   5.7
      thresh= 1.000E-02 alpha_mix =  0.700 |ddv_scf|^2 =  1.093E-06

      iter #   2 total cpu time :   155.6 secs   av.it.:  11.6
      thresh= 1.045E-04 alpha_mix =  0.700 |ddv_scf|^2 =  6.196E-07

      iter #   3 total cpu time :   156.5 secs   av.it.:  11.1
      thresh= 7.871E-05 alpha_mix =  0.700 |ddv_scf|^2 =  5.913E-10

      iter #   4 total cpu time :   157.3 secs   av.it.:  11.0
      thresh= 2.432E-06 alpha_mix =  0.700 |ddv_scf|^2 =  2.621E-12

      iter #   5 total cpu time :   158.0 secs   av.it.:  11.1
      thresh= 1.619E-07 alpha_mix =  0.700 |ddv_scf|^2 =  6.918E-14

     End of self-consistent calculation

     Convergence has been achieved 


     Representation #  2 modes #   3  4

     Self-consistent Calculation

      iter #   1 total cpu time :   158.7 secs   av.it.:   5.6
      thresh= 1.000E-02 alpha_mix =  0.700 |ddv_scf|^2 =  1.689E-06

      iter #   2 total cpu time :   159.5 secs   av.it.:  11.6
      thresh= 1.300E-04 alpha_mix =  0.700 |ddv_scf|^2 =  2.268E-06

      iter #   3 total cpu time :   160.3 secs   av.it.:  10.9
      thresh= 1.506E-04 alpha_mix =  0.700 |ddv_scf|^2 =  6.967E-10

      iter #   4 total cpu time :   161.1 secs   av.it.:  11.0
      thresh= 2.639E-06 alpha_mix =  0.700 |ddv_scf|^2 =  1.022E-11

      iter #   5 total cpu time :   161.8 secs   av.it.:  11.1
      thresh= 3.197E-07 alpha_mix =  0.700 |ddv_scf|^2 =  1.744E-13

     End of self-consistent calculation

     Convergence has been achieved 


     Representation #  3 modes #   5  6

     Self-consistent Calculation

      iter #   1 total cpu time :   162.5 secs   av.it.:   5.3
      thresh= 1.000E-02 alpha_mix =  0.700 |ddv_scf|^2 =  4.437E-07

      iter #   2 total cpu time :   163.3 secs   av.it.:  11.6
      thresh= 6.661E-05 alpha_mix =  0.700 |ddv_scf|^2 =  2.595E-07

      iter #   3 total cpu time :   164.2 secs   av.it.:  11.1
      thresh= 5.094E-05 alpha_mix =  0.700 |ddv_scf|^2 =  5.149E-10

      iter #   4 total cpu time :   165.0 secs   av.it.:  11.1
      thresh= 2.269E-06 alpha_mix =  0.700 |ddv_scf|^2 =  5.947E-12

      iter #   5 total cpu time :   165.7 secs   av.it.:  11.1
      thresh= 2.439E-07 alpha_mix =  0.700 |ddv_scf|^2 =  8.326E-14

     End of self-consistent calculation

     Convergence has been achieved 

     Number of q in the star =    6
     List of q in the star:
          1  -0.500000000  -1.000000000   0.000000000
          2   0.000000000   1.000000000   0.500000000
          3   0.000000000  -1.000000000  -0.500000000
          4   0.500000000   1.000000000   0.000000000
          5  -1.000000000  -0.500000000   0.000000000
          6   0.000000000  -0.500000000  -1.000000000

     Diagonalizing the dynamical matrix

     q = (   -0.500000000  -1.000000000   0.000000000 ) 

 **************************************************************************
     freq (    1) =       5.990817 [THz] =     199.832142 [cm-1]
     freq (    2) =       5.990817 [THz] =     199.832142 [cm-1]
     freq (    3) =      10.450010 [THz] =     348.574817 [cm-1]
     freq (    4) =      10.450010 [THz] =     348.574817 [cm-1]
     freq (    5) =      13.765256 [THz] =     459.159527 [cm-1]
     freq (    6) =      13.765256 [THz] =     459.159527 [cm-1]
 **************************************************************************

     init_run     :      1.25s CPU      1.31s WALL (       7 calls)
     electrons    :      7.17s CPU      7.74s WALL (       7 calls)

     Called by init_run:
     wfcinit      :      0.00s CPU      0.03s WALL (       7 calls)
     potinit      :      0.07s CPU      0.09s WALL (       7 calls)

     Called by electrons:
     c_bands      :      7.16s CPU      7.74s WALL (       7 calls)
     v_of_rho     :      0.06s CPU      0.07s WALL (       8 calls)
     newd         :      0.13s CPU      0.14s WALL (       8 calls)

     Called by c_bands:
     init_us_2    :      1.63s CPU      1.55s WALL (   16040 calls)
     cegterg      :      5.99s CPU      6.46s WALL (     796 calls)

     Called by sum_band:

     Called by *egterg:
     h_psi        :     68.69s CPU     73.69s WALL (  154461 calls)
     s_psi        :      5.55s CPU      6.89s WALL (  311324 calls)
     g_psi        :      0.05s CPU      0.07s WALL (    9666 calls)
     cdiaghg      :      0.56s CPU      0.56s WALL (   10462 calls)

     Called by h_psi:
     h_psi:pot    :     68.28s CPU     73.17s WALL (  154461 calls)
     h_psi:calbec :      3.42s CPU      3.99s WALL (  154461 calls)
     vloc_psi     :     60.23s CPU     65.08s WALL (  154461 calls)
     add_vuspsi   :      4.28s CPU      3.63s WALL (  154461 calls)

     General routines
     calbec       :      8.12s CPU      8.54s WALL (  345776 calls)
     fft          :      1.33s CPU      1.39s WALL (    5265 calls)
     ffts         :      0.21s CPU      0.22s WALL (    3320 calls)
     fftw         :     63.46s CPU     67.79s WALL ( 1383402 calls)
     interpolate  :      0.21s CPU      0.22s WALL (     572 calls)
     davcio       :      0.32s CPU      1.00s WALL (   69876 calls)

     Parallel routines
     fft_scatter  :     16.16s CPU     19.65s WALL ( 1391987 calls)

     PHONON       :  2m11.89s CPU     2m46.35s WALL

     INITIALIZATION: 
     phq_setup    :      0.22s CPU      0.43s WALL (       8 calls)
     phq_init     :      6.85s CPU      7.13s WALL (       8 calls)

     phq_init     :      6.85s CPU      7.13s WALL (       8 calls)
     set_drhoc    :      1.82s CPU      1.83s WALL (      24 calls)
     init_vloc    :      0.03s CPU      0.03s WALL (       8 calls)
     init_us_1    :      0.97s CPU      0.97s WALL (       8 calls)
     newd         :      0.13s CPU      0.14s WALL (       8 calls)
     dvanqq       :      1.18s CPU      1.18s WALL (       8 calls)
     drho         :      2.59s CPU      2.67s WALL (       8 calls)

     DYNAMICAL MATRIX:
     dynmat0      :      1.72s CPU      1.83s WALL (       8 calls)
     phqscf       :    111.63s CPU    140.27s WALL (       8 calls)
     dynmatrix    :      0.01s CPU      0.22s WALL (       8 calls)

     phqscf       :    111.63s CPU    140.27s WALL (       8 calls)
     solve_linter :    110.75s CPU    137.39s WALL (      32 calls)
     drhodv       :      0.59s CPU      0.61s WALL (      32 calls)

     dynmat0      :      1.72s CPU      1.83s WALL (       8 calls)
     dynmat_us    :      0.40s CPU      0.40s WALL (       8 calls)
     d2ionq       :      0.04s CPU      0.04s WALL (       8 calls)
     dynmatcc     :      1.27s CPU      1.28s WALL (       8 calls)

     dynmat_us    :      0.40s CPU      0.40s WALL (       8 calls)
     addusdynmat  :      0.00s CPU      0.00s WALL (       8 calls)

     phqscf       :    111.63s CPU    140.27s WALL (       8 calls)
     solve_linter :    110.75s CPU    137.39s WALL (      32 calls)

     solve_linter :    110.75s CPU    137.39s WALL (      32 calls)
     dvqpsi_us    :      2.13s CPU      2.28s WALL (    2508 calls)
     ortho        :      0.92s CPU      1.06s WALL (   13630 calls)
     cgsolve      :     76.19s CPU     82.92s WALL (   13630 calls)
     incdrhoscf   :      6.33s CPU      6.90s WALL (   13630 calls)
     addusddens   :      7.02s CPU      7.07s WALL (     202 calls)
     vpsifft      :      4.54s CPU      4.97s WALL (   11002 calls)
     dv_of_drho   :      1.27s CPU      1.30s WALL (     256 calls)
     mix_pot      :      0.36s CPU      9.43s WALL (     175 calls)
     psymdvscf    :      4.09s CPU      4.14s WALL (     170 calls)
     newdq        :      7.61s CPU      7.63s WALL (     175 calls)
     adddvscf     :      0.43s CPU      0.42s WALL (   11122 calls)
     drhodvus     :      0.01s CPU      0.02s WALL (      32 calls)

     dvqpsi_us    :      2.13s CPU      2.28s WALL (    2508 calls)
     dvqpsi_us_on :      0.92s CPU      0.95s WALL (    2508 calls)

     cgsolve      :     76.19s CPU     82.92s WALL (   13630 calls)
     ch_psi       :     75.05s CPU     81.17s WALL (  143203 calls)

     ch_psi       :     75.05s CPU     81.17s WALL (  143203 calls)
     h_psi        :     68.69s CPU     73.69s WALL (  154461 calls)
     last         :      8.95s CPU      9.11s WALL (  143203 calls)

     h_psi        :     68.69s CPU     73.69s WALL (  154461 calls)
     add_vuspsi   :      4.28s CPU      3.63s WALL (  154461 calls)

     incdrhoscf   :      6.33s CPU      6.90s WALL (   13630 calls)
     addusdbec    :      0.48s CPU      0.52s WALL (   16078 calls)

     drhodvus     :      0.01s CPU      0.02s WALL (      32 calls)

      General routines
     calbec       :      8.12s CPU      8.54s WALL (  345776 calls)
     fft          :      1.33s CPU      1.39s WALL (    5265 calls)
     ffts         :      0.21s CPU      0.22s WALL (    3320 calls)
     fftw         :     63.46s CPU     67.79s WALL ( 1383402 calls)
     davcio       :      0.32s CPU      1.00s WALL (   69876 calls)
     write_rec    :      0.23s CPU     11.54s WALL (     207 calls)


     PHONON       :  2m11.89s CPU     2m46.35s WALL


   This run was terminated on:  15:34:46  10Nov2017            

=------------------------------------------------------------------------------=
   JOB DONE.
=------------------------------------------------------------------------------=
