
     Program PWSCF v.6.1 (svn rev. 13369) starts on 10Nov2017 at 12: 7:59 

     This program is part of the open-source Quantum ESPRESSO suite
     for quantum simulation of materials; please cite
         "P. Giannozzi et al., J. Phys.:Condens. Matter 21 395502 (2009);
          URL http://www.quantum-espresso.org", 
     in publications or presentations arising from this work. More details at
     http://www.quantum-espresso.org/quote

     Parallel version (MPI), running on     4 processors
     R & G space division:  proc/nbgrp/npool/nimage =       4
     Waiting for input...
     Reading input from standard input
     Message from routine read_cards :
     DEPRECATED: no units specified in ATOMIC_POSITIONS card
     Message from routine read_cards :
     ATOMIC_POSITIONS: units set to alat

     Current dimensions of program PWSCF are:
     Max number of different atomic species (ntypx) = 10
     Max number of k-points (npk) =  40000
     Max angular momentum in pseudopotentials (lmaxx) =  3

     Subspace diagonalization in iterative solution of the eigenvalue problem:
     a serial algorithm will be used


     Parallelization info
     --------------------
     sticks:   dense  smooth     PW     G-vecs:    dense   smooth      PW
     Min         153      78     27                 2519      911     181
     Max         154      79     28                 2521      913     182
     Sum         613     313    109                10081     3647     725



     bravais-lattice index     =            2
     lattice parameter (alat)  =      10.3330  a.u.
     unit-cell volume          =     275.8159 (a.u.)^3
     number of atoms/cell      =            2
     number of atomic types    =            1
     number of electrons       =         8.00
     number of Kohn-Sham states=            4
     kinetic-energy cutoff     =      21.0000  Ry
     charge density cutoff     =     168.0000  Ry
     convergence threshold     =      1.0E-08
     mixing beta               =       0.7000
     number of iterations used =            8  plain     mixing
     Exchange-correlation      = SLA  PW   PBE  PBE ( 1  4  3  4 0 0)

     celldm(1)=  10.333000  celldm(2)=   0.000000  celldm(3)=   0.000000
     celldm(4)=   0.000000  celldm(5)=   0.000000  celldm(6)=   0.000000

     crystal axes: (cart. coord. in units of alat)
               a(1) = (  -0.500000   0.000000   0.500000 )  
               a(2) = (   0.000000   0.500000   0.500000 )  
               a(3) = (  -0.500000   0.500000   0.000000 )  

     reciprocal axes: (cart. coord. in units 2 pi/alat)
               b(1) = ( -1.000000 -1.000000  1.000000 )  
               b(2) = (  1.000000  1.000000  1.000000 )  
               b(3) = ( -1.000000  1.000000 -1.000000 )  


     PseudoPot. # 1 for Si read from file:
     /home/max/quantum_espresso/qe-6.1/pseudo/si_pbe_v1.uspp.F.UPF.txt
     MD5 check sum: a056efeee980c13900f22a371efd63c1
     Pseudo is Ultrasoft + core correction, Zval =  4.0
     Generated by new atomic code, or converted to UPF format
     Using radial grid of  899 points,  6 beta functions with: 
                l(1) =   0
                l(2) =   0
                l(3) =   1
                l(4) =   1
                l(5) =   2
                l(6) =   2
     Q(r) pseudized with  8 coefficients,  rinner =    0.900   0.900   0.900
                                                       0.900   0.900

     atomic species   valence    mass     pseudopotential
        Si             4.00    28.08600     Si( 1.00)

     48 Sym. Ops., with inversion, found (24 have fractional translation)



   Cartesian axes

     site n.     atom                  positions (alat units)
         1           Si  tau(   1) = (   0.0000000   0.0000000   0.0000000  )
         2           Si  tau(   2) = (   0.2500000   0.2500000   0.2500000  )

     number of k points=    28
                       cart. coord. in units 2pi/alat
        k(    1) = (  -0.0833333   0.0833333   0.0833333), wk =   0.0185185
        k(    2) = (  -0.2500000   0.2500000  -0.0833333), wk =   0.0555556
        k(    3) = (  -0.4166667   0.4166667  -0.2500000), wk =   0.0555556
        k(    4) = (   0.4166667  -0.4166667   0.5833333), wk =   0.0555556
        k(    5) = (   0.2500000  -0.2500000   0.4166667), wk =   0.0555556
        k(    6) = (   0.0833333  -0.0833333   0.2500000), wk =   0.0555556
        k(    7) = (  -0.0833333   0.4166667   0.0833333), wk =   0.0555556
        k(    8) = (  -0.2500000   0.5833333  -0.0833333), wk =   0.1111111
        k(    9) = (   0.5833333  -0.2500000   0.7500000), wk =   0.1111111
        k(   10) = (   0.4166667  -0.0833333   0.5833333), wk =   0.1111111
        k(   11) = (   0.2500000   0.0833333   0.4166667), wk =   0.1111111
        k(   12) = (  -0.0833333   0.7500000   0.0833333), wk =   0.0555556
        k(   13) = (   0.7500000  -0.0833333   0.9166667), wk =   0.1111111
        k(   14) = (   0.5833333   0.0833333   0.7500000), wk =   0.1111111
        k(   15) = (   0.4166667   0.2500000   0.5833333), wk =   0.1111111
        k(   16) = (  -0.0833333  -0.9166667   0.0833333), wk =   0.0555556
        k(   17) = (  -0.2500000  -0.7500000  -0.0833333), wk =   0.1111111
        k(   18) = (  -0.0833333  -0.5833333   0.0833333), wk =   0.0555556
        k(   19) = (  -0.2500000   0.2500000   0.2500000), wk =   0.0185185
        k(   20) = (  -0.4166667   0.4166667   0.0833333), wk =   0.0555556
        k(   21) = (   0.4166667  -0.4166667   0.9166667), wk =   0.0555556
        k(   22) = (   0.2500000  -0.2500000   0.7500000), wk =   0.0555556
        k(   23) = (  -0.2500000   0.5833333   0.2500000), wk =   0.0555556
        k(   24) = (   0.5833333  -0.2500000   1.0833333), wk =   0.1111111
        k(   25) = (   0.4166667  -0.0833333   0.9166667), wk =   0.1111111
        k(   26) = (  -0.2500000  -1.0833333   0.2500000), wk =   0.0555556
        k(   27) = (  -0.4166667   0.4166667   0.4166667), wk =   0.0185185
        k(   28) = (   0.4166667  -0.4166667   1.2500000), wk =   0.0555556

     Dense  grid:    10081 G-vectors     FFT dimensions: (  32,  32,  32)

     Smooth grid:     3647 G-vectors     FFT dimensions: (  24,  24,  24)

     Estimated max dynamical RAM per process >       1.88MB

     Estimated total allocated dynamical RAM >       7.54MB

     Initial potential from superposition of free atoms

     starting charge    7.99866, renormalised to    8.00000
     Starting wfc are    8 randomized atomic wfcs

     total cpu time spent up to now is        0.4 secs

     per-process dynamical memory:     9.1 Mb

     Self-consistent Calculation

     iteration #  1     ecut=    21.00 Ry     beta=0.70
     Davidson diagonalization with overlap
     ethr =  1.00E-02,  avg # of iterations =  2.0

     Threshold (ethr) on eigenvalues was too large:
     Diagonalizing with lowered threshold

     Davidson diagonalization with overlap
     ethr =  6.77E-04,  avg # of iterations =  1.0

     total cpu time spent up to now is        0.7 secs

     total energy              =     -19.19085028 Ry
     Harris-Foulkes estimate   =     -19.20331019 Ry
     estimated scf accuracy    <       0.05374905 Ry

     iteration #  2     ecut=    21.00 Ry     beta=0.70
     Davidson diagonalization with overlap
     ethr =  6.72E-04,  avg # of iterations =  1.0

     total cpu time spent up to now is        1.0 secs

     total energy              =     -19.19260979 Ry
     Harris-Foulkes estimate   =     -19.19277692 Ry
     estimated scf accuracy    <       0.00243904 Ry

     iteration #  3     ecut=    21.00 Ry     beta=0.70
     Davidson diagonalization with overlap
     ethr =  3.05E-05,  avg # of iterations =  2.0

     total cpu time spent up to now is        1.1 secs

     total energy              =     -19.19291875 Ry
     Harris-Foulkes estimate   =     -19.19293215 Ry
     estimated scf accuracy    <       0.00004195 Ry

     iteration #  4     ecut=    21.00 Ry     beta=0.70
     Davidson diagonalization with overlap
     ethr =  5.24E-07,  avg # of iterations =  3.0

     total cpu time spent up to now is        1.3 secs

     total energy              =     -19.19294501 Ry
     Harris-Foulkes estimate   =     -19.19294569 Ry
     estimated scf accuracy    <       0.00000263 Ry

     iteration #  5     ecut=    21.00 Ry     beta=0.70
     Davidson diagonalization with overlap
     ethr =  3.29E-08,  avg # of iterations =  2.1

     total cpu time spent up to now is        1.5 secs

     total energy              =     -19.19294544 Ry
     Harris-Foulkes estimate   =     -19.19294545 Ry
     estimated scf accuracy    <       0.00000003 Ry

     iteration #  6     ecut=    21.00 Ry     beta=0.70
     Davidson diagonalization with overlap
     ethr =  3.46E-10,  avg # of iterations =  3.5

     total cpu time spent up to now is        1.7 secs

     End of self-consistent calculation

          k =-0.0833 0.0833 0.0833 (   447 PWs)   bands (ev):

    -5.7489   5.1220   5.8398   5.8398

          k =-0.2500 0.2500-0.0833 (   455 PWs)   bands (ev):

    -5.2794   3.0551   4.6226   5.6303

          k =-0.4167 0.4167-0.2500 (   444 PWs)   bands (ev):

    -4.2051   0.3304   4.1598   5.0017

          k = 0.4167-0.4167 0.5833 (   449 PWs)   bands (ev):

    -3.5220  -0.7934   4.2226   4.6273

          k = 0.2500-0.2500 0.4167 (   446 PWs)   bands (ev):

    -4.6097   1.1647   4.6885   4.7151

          k = 0.0833-0.0833 0.2500 (   458 PWs)   bands (ev):

    -5.5119   4.0555   5.2047   5.3829

          k =-0.0833 0.4167 0.0833 (   457 PWs)   bands (ev):

    -5.0418   2.8582   4.4662   4.4853

          k =-0.2500 0.5833-0.0833 (   449 PWs)   bands (ev):

    -4.1456   1.0390   3.1703   4.1029

          k = 0.5833-0.2500 0.7500 (   444 PWs)   bands (ev):

    -3.0510  -0.6791   2.5729   3.8805

          k = 0.4167-0.0833 0.5833 (   443 PWs)   bands (ev):

    -3.7582   0.3583   2.5372   4.3580

          k = 0.2500 0.0833 0.4167 (   452 PWs)   bands (ev):

    -4.8199   2.0372   3.8567   5.0135

          k =-0.0833 0.7500 0.0833 (   449 PWs)   bands (ev):

    -3.4442   0.2138   3.1374   3.4700

          k = 0.7500-0.0833 0.9167 (   446 PWs)   bands (ev):

    -2.2679  -1.1088   2.3122   3.0721

          k = 0.5833 0.0833 0.7500 (   449 PWs)   bands (ev):

    -2.6371  -0.7707   1.8353   3.6089

          k = 0.4167 0.2500 0.5833 (   447 PWs)   bands (ev):

    -3.6498  -0.3053   3.4569   4.4533

          k =-0.0833-0.9167 0.0833 (   454 PWs)   bands (ev):

    -2.3566  -1.1160   2.8720   3.2573

          k =-0.2500-0.7500-0.0833 (   447 PWs)   bands (ev):

    -3.2791  -0.0050   2.6259   3.4076

          k =-0.0833-0.5833 0.0833 (   447 PWs)   bands (ev):

    -4.3474   1.5648   3.6728   3.8869

          k =-0.2500 0.2500 0.2500 (   459 PWs)   bands (ev):

    -5.0537   2.0915   5.2337   5.2337

          k =-0.4167 0.4167 0.0833 (   449 PWs)   bands (ev):

    -4.3850   1.1597   3.1346   5.0655

          k = 0.4167-0.4167 0.9167 (   447 PWs)   bands (ev):

    -3.2266  -0.2680   2.0469   4.2920

          k = 0.2500-0.2500 0.7500 (   447 PWs)   bands (ev):

    -3.1744  -0.3467   2.5156   3.8177

          k =-0.2500 0.5833 0.2500 (   446 PWs)   bands (ev):

    -3.9681   0.3652   3.5852   4.1856

          k = 0.5833-0.2500 1.0833 (   443 PWs)   bands (ev):

    -2.9828  -0.3855   2.1465   3.4071

          k = 0.4167-0.0833 0.9167 (   446 PWs)   bands (ev):

    -2.1654  -1.1164   1.9891   2.7517

          k =-0.2500-1.0833 0.2500 (   445 PWs)   bands (ev):

    -2.3734  -1.0193   1.8647   3.6260

          k =-0.4167 0.4167 0.4167 (   446 PWs)   bands (ev):

    -3.8831  -0.3993   4.8487   4.8487

          k = 0.4167-0.4167 1.2500 (   446 PWs)   bands (ev):

    -3.2896  -0.7020   3.0384   4.4165

     highest occupied level (ev):     5.8398

!    total energy              =     -19.19294547 Ry
     Harris-Foulkes estimate   =     -19.19294547 Ry
     estimated scf accuracy    <          4.2E-09 Ry

     The total energy is the sum of the following terms:

     one-electron contribution =       4.95205463 Ry
     hartree contribution      =       1.13367966 Ry
     xc contribution           =      -8.59644441 Ry
     ewald contribution        =     -16.68223535 Ry

     convergence has been achieved in   6 iterations


     Computing stress (Cartesian axis) and pressure

          total   stress  (Ry/bohr**3)                   (kbar)     P=   -2.01
  -0.00001370  -0.00000000  -0.00000000         -2.01     -0.00     -0.00
  -0.00000000  -0.00001370   0.00000000         -0.00     -2.01      0.00
  -0.00000000   0.00000000  -0.00001370         -0.00      0.00     -2.01


     Writing output data file silicon.21.save

     init_run     :      0.26s CPU      0.28s WALL (       1 calls)
     electrons    :      1.03s CPU      1.29s WALL (       1 calls)
     stress       :      0.18s CPU      0.19s WALL (       1 calls)

     Called by init_run:
     wfcinit      :      0.06s CPU      0.06s WALL (       1 calls)
     potinit      :      0.02s CPU      0.02s WALL (       1 calls)

     Called by electrons:
     c_bands      :      0.66s CPU      0.84s WALL (       7 calls)
     sum_band     :      0.22s CPU      0.27s WALL (       7 calls)
     v_of_rho     :      0.06s CPU      0.07s WALL (       7 calls)
     newd         :      0.09s CPU      0.11s WALL (       7 calls)
     mix_rho      :      0.00s CPU      0.00s WALL (       7 calls)

     Called by c_bands:
     init_us_2    :      0.04s CPU      0.04s WALL (     448 calls)
     cegterg      :      0.58s CPU      0.75s WALL (     196 calls)

     Called by sum_band:
     sum_band:bec :      0.00s CPU      0.00s WALL (     196 calls)
     addusdens    :      0.09s CPU      0.12s WALL (       7 calls)

     Called by *egterg:
     h_psi        :      0.51s CPU      0.64s WALL (     634 calls)
     s_psi        :      0.03s CPU      0.04s WALL (     634 calls)
     g_psi        :      0.00s CPU      0.00s WALL (     410 calls)
     cdiaghg      :      0.04s CPU      0.05s WALL (     578 calls)

     Called by h_psi:
     h_psi:pot    :      0.50s CPU      0.64s WALL (     634 calls)
     h_psi:calbec :      0.05s CPU      0.09s WALL (     634 calls)
     vloc_psi     :      0.42s CPU      0.51s WALL (     634 calls)
     add_vuspsi   :      0.03s CPU      0.04s WALL (     634 calls)

     General routines
     calbec       :      0.06s CPU      0.11s WALL (     858 calls)
     fft          :      0.04s CPU      0.06s WALL (     126 calls)
     ffts         :      0.01s CPU      0.01s WALL (      14 calls)
     fftw         :      0.43s CPU      0.54s WALL (    5546 calls)
     interpolate  :      0.02s CPU      0.02s WALL (      14 calls)
     davcio       :      0.00s CPU      0.00s WALL (      28 calls)

     Parallel routines
     fft_scatter  :      0.12s CPU      0.22s WALL (    5686 calls)

     PWSCF        :     1.69s CPU         1.98s WALL


   This run was terminated on:  12: 8: 1  10Nov2017            

=------------------------------------------------------------------------------=
   JOB DONE.
=------------------------------------------------------------------------------=
