
     Program PWSCF v.6.1 (svn rev. 13369) starts on 10Nov2017 at  9:59:15 

     This program is part of the open-source Quantum ESPRESSO suite
     for quantum simulation of materials; please cite
         "P. Giannozzi et al., J. Phys.:Condens. Matter 21 395502 (2009);
          URL http://www.quantum-espresso.org", 
     in publications or presentations arising from this work. More details at
     http://www.quantum-espresso.org/quote

     Parallel version (MPI), running on     4 processors
     R & G space division:  proc/nbgrp/npool/nimage =       4
     Waiting for input...
     Reading input from standard input
     Message from routine read_cards :
     DEPRECATED: no units specified in ATOMIC_POSITIONS card
     Message from routine read_cards :
     ATOMIC_POSITIONS: units set to alat

     Current dimensions of program PWSCF are:
     Max number of different atomic species (ntypx) = 10
     Max number of k-points (npk) =  40000
     Max angular momentum in pseudopotentials (lmaxx) =  3

     Subspace diagonalization in iterative solution of the eigenvalue problem:
     a serial algorithm will be used


     Parallelization info
     --------------------
     sticks:   dense  smooth     PW     G-vecs:    dense   smooth      PW
     Min          66      66     22                  722      722     152
     Max          67      67     23                  724      724     153
     Sum         265     265     91                 2891     2891     609



     bravais-lattice index     =            2
     lattice parameter (alat)  =      10.4100  a.u.
     unit-cell volume          =     282.0280 (a.u.)^3
     number of atoms/cell      =            2
     number of atomic types    =            1
     number of electrons       =         8.00
     number of Kohn-Sham states=            4
     kinetic-energy cutoff     =      18.0000  Ry
     charge density cutoff     =      72.0000  Ry
     convergence threshold     =      1.0E-08
     mixing beta               =       0.7000
     number of iterations used =            8  plain     mixing
     Exchange-correlation      = SLA  PW   PBE  PBE ( 1  4  3  4 0 0)

     celldm(1)=  10.410000  celldm(2)=   0.000000  celldm(3)=   0.000000
     celldm(4)=   0.000000  celldm(5)=   0.000000  celldm(6)=   0.000000

     crystal axes: (cart. coord. in units of alat)
               a(1) = (  -0.500000   0.000000   0.500000 )  
               a(2) = (   0.000000   0.500000   0.500000 )  
               a(3) = (  -0.500000   0.500000   0.000000 )  

     reciprocal axes: (cart. coord. in units 2 pi/alat)
               b(1) = ( -1.000000 -1.000000  1.000000 )  
               b(2) = (  1.000000  1.000000  1.000000 )  
               b(3) = ( -1.000000  1.000000 -1.000000 )  


     PseudoPot. # 1 for Si read from file:
     /home/max/quantum_espresso/qe-6.1/pseudo/si_pbe_v1.uspp.F.UPF.txt
     MD5 check sum: a056efeee980c13900f22a371efd63c1
     Pseudo is Ultrasoft + core correction, Zval =  4.0
     Generated by new atomic code, or converted to UPF format
     Using radial grid of  899 points,  6 beta functions with: 
                l(1) =   0
                l(2) =   0
                l(3) =   1
                l(4) =   1
                l(5) =   2
                l(6) =   2
     Q(r) pseudized with  8 coefficients,  rinner =    0.900   0.900   0.900
                                                       0.900   0.900

     atomic species   valence    mass     pseudopotential
        Si             4.00    28.08600     Si( 1.00)

     48 Sym. Ops., with inversion, found (24 have fractional translation)



   Cartesian axes

     site n.     atom                  positions (alat units)
         1           Si  tau(   1) = (   0.0000000   0.0000000   0.0000000  )
         2           Si  tau(   2) = (   0.2500000   0.2500000   0.2500000  )

     number of k points=    10
                       cart. coord. in units 2pi/alat
        k(    1) = (  -0.1250000   0.1250000   0.1250000), wk =   0.0625000
        k(    2) = (  -0.3750000   0.3750000  -0.1250000), wk =   0.1875000
        k(    3) = (   0.3750000  -0.3750000   0.6250000), wk =   0.1875000
        k(    4) = (   0.1250000  -0.1250000   0.3750000), wk =   0.1875000
        k(    5) = (  -0.1250000   0.6250000   0.1250000), wk =   0.1875000
        k(    6) = (   0.6250000  -0.1250000   0.8750000), wk =   0.3750000
        k(    7) = (   0.3750000   0.1250000   0.6250000), wk =   0.3750000
        k(    8) = (  -0.1250000  -0.8750000   0.1250000), wk =   0.1875000
        k(    9) = (  -0.3750000   0.3750000   0.3750000), wk =   0.0625000
        k(   10) = (   0.3750000  -0.3750000   1.1250000), wk =   0.1875000

     Dense  grid:     2891 G-vectors     FFT dimensions: (  20,  20,  20)

     Estimated max dynamical RAM per process >       0.59MB

     Estimated total allocated dynamical RAM >       2.37MB

     Check: negative/imaginary core charge=   -0.000006    0.000000

     Initial potential from superposition of free atoms

     starting charge    7.99866, renormalised to    8.00000
     Starting wfc are    8 randomized atomic wfcs

     total cpu time spent up to now is        0.3 secs

     per-process dynamical memory:     6.7 Mb

     Self-consistent Calculation

     iteration #  1     ecut=    18.00 Ry     beta=0.70
     Davidson diagonalization with overlap
     ethr =  1.00E-02,  avg # of iterations =  2.0

     Threshold (ethr) on eigenvalues was too large:
     Diagonalizing with lowered threshold

     Davidson diagonalization with overlap
     ethr =  6.66E-04,  avg # of iterations =  1.0

     total cpu time spent up to now is        0.5 secs

     total energy              =     -19.19522040 Ry
     Harris-Foulkes estimate   =     -19.20677467 Ry
     estimated scf accuracy    <       0.05300900 Ry

     iteration #  2     ecut=    18.00 Ry     beta=0.70
     Davidson diagonalization with overlap
     ethr =  6.63E-04,  avg # of iterations =  1.0

     total cpu time spent up to now is        0.5 secs

     total energy              =     -19.19671204 Ry
     Harris-Foulkes estimate   =     -19.19690894 Ry
     estimated scf accuracy    <       0.00251140 Ry

     iteration #  3     ecut=    18.00 Ry     beta=0.70
     Davidson diagonalization with overlap
     ethr =  3.14E-05,  avg # of iterations =  2.0

     total cpu time spent up to now is        0.6 secs

     total energy              =     -19.19696554 Ry
     Harris-Foulkes estimate   =     -19.19698177 Ry
     estimated scf accuracy    <       0.00004362 Ry

     iteration #  4     ecut=    18.00 Ry     beta=0.70
     Davidson diagonalization with overlap
     ethr =  5.45E-07,  avg # of iterations =  2.7

     total cpu time spent up to now is        0.7 secs

     total energy              =     -19.19698627 Ry
     Harris-Foulkes estimate   =     -19.19698756 Ry
     estimated scf accuracy    <       0.00000354 Ry

     iteration #  5     ecut=    18.00 Ry     beta=0.70
     Davidson diagonalization with overlap
     ethr =  4.42E-08,  avg # of iterations =  2.1

     total cpu time spent up to now is        0.9 secs

     total energy              =     -19.19698687 Ry
     Harris-Foulkes estimate   =     -19.19698691 Ry
     estimated scf accuracy    <       0.00000009 Ry

     iteration #  6     ecut=    18.00 Ry     beta=0.70
     Davidson diagonalization with overlap
     ethr =  1.12E-09,  avg # of iterations =  2.6

     total cpu time spent up to now is        1.0 secs

     End of self-consistent calculation

          k =-0.1250 0.1250 0.1250 (   353 PWs)   bands (ev):

    -5.7112   4.1702   5.4817   5.4817

          k =-0.3750 0.3750-0.1250 (   362 PWs)   bands (ev):

    -4.7078   1.2153   3.5385   5.0056

          k = 0.3750-0.3750 0.6250 (   364 PWs)   bands (ev):

    -3.6018  -0.8093   3.5469   4.2539

          k = 0.1250-0.1250 0.3750 (   358 PWs)   bands (ev):

    -5.1945   2.5622   4.4983   4.5493

          k =-0.1250 0.6250 0.1250 (   357 PWs)   bands (ev):

    -4.1855   0.8578   3.2032   3.6420

          k = 0.6250-0.1250 0.8750 (   368 PWs)   bands (ev):

    -2.5890  -1.0705   1.8924   2.9386

          k = 0.3750 0.1250 0.6250 (   365 PWs)   bands (ev):

    -3.7825   0.0169   2.5727   3.9124

          k =-0.1250-0.8750 0.1250 (   364 PWs)   bands (ev):

    -2.7462  -0.9783   2.4832   3.1839

          k =-0.3750 0.3750 0.3750 (   359 PWs)   bands (ev):

    -4.2870  -0.0361   4.7057   4.7057

          k = 0.3750-0.3750 1.1250 (   369 PWs)   bands (ev):

    -3.1162  -0.7537   1.9399   3.9453

     highest occupied level (ev):     5.4817

!    total energy              =     -19.19698690 Ry
     Harris-Foulkes estimate   =     -19.19698690 Ry
     estimated scf accuracy    <          7.9E-10 Ry

     The total energy is the sum of the following terms:

     one-electron contribution =       4.78084318 Ry
     hartree contribution      =       1.16185767 Ry
     xc contribution           =      -8.58084645 Ry
     ewald contribution        =     -16.55884130 Ry

     convergence has been achieved in   6 iterations

     Writing output data file silicon.10.410.save

     init_run     :      0.14s CPU      0.24s WALL (       1 calls)
     electrons    :      0.31s CPU      0.68s WALL (       1 calls)

     Called by init_run:
     wfcinit      :      0.01s CPU      0.03s WALL (       1 calls)
     potinit      :      0.00s CPU      0.01s WALL (       1 calls)

     Called by electrons:
     c_bands      :      0.19s CPU      0.43s WALL (       7 calls)
     sum_band     :      0.06s CPU      0.12s WALL (       7 calls)
     v_of_rho     :      0.02s CPU      0.04s WALL (       7 calls)
     newd         :      0.03s CPU      0.06s WALL (       7 calls)
     mix_rho      :      0.00s CPU      0.02s WALL (       7 calls)

     Called by c_bands:
     init_us_2    :      0.01s CPU      0.01s WALL (     150 calls)
     cegterg      :      0.16s CPU      0.37s WALL (      70 calls)

     Called by sum_band:
     sum_band:bec :      0.00s CPU      0.00s WALL (      70 calls)
     addusdens    :      0.03s CPU      0.05s WALL (       7 calls)

     Called by *egterg:
     h_psi        :      0.11s CPU      0.26s WALL (     214 calls)
     s_psi        :      0.01s CPU      0.01s WALL (     214 calls)
     g_psi        :      0.00s CPU      0.00s WALL (     134 calls)
     cdiaghg      :      0.02s CPU      0.04s WALL (     194 calls)

     Called by h_psi:
     h_psi:pot    :      0.11s CPU      0.26s WALL (     214 calls)
     h_psi:calbec :      0.03s CPU      0.07s WALL (     214 calls)
     vloc_psi     :      0.07s CPU      0.18s WALL (     214 calls)
     add_vuspsi   :      0.01s CPU      0.01s WALL (     214 calls)

     General routines
     calbec       :      0.04s CPU      0.10s WALL (     284 calls)
     fft          :      0.02s CPU      0.05s WALL (      93 calls)
     fftw         :      0.08s CPU      0.20s WALL (    1932 calls)
     davcio       :      0.00s CPU      0.00s WALL (      10 calls)

     Parallel routines
     fft_scatter  :      0.06s CPU      0.20s WALL (    2025 calls)

     PWSCF        :     0.62s CPU         1.15s WALL


   This run was terminated on:   9:59:16  10Nov2017            

=------------------------------------------------------------------------------=
   JOB DONE.
=------------------------------------------------------------------------------=
