
     Program PHONON v.6.1 (svn rev. 13369) starts on 10Nov2017 at 15:38: 4 

     This program is part of the open-source Quantum ESPRESSO suite
     for quantum simulation of materials; please cite
         "P. Giannozzi et al., J. Phys.:Condens. Matter 21 395502 (2009);
          URL http://www.quantum-espresso.org", 
     in publications or presentations arising from this work. More details at
     http://www.quantum-espresso.org/quote

     Parallel version (MPI), running on     4 processors
     R & G space division:  proc/nbgrp/npool/nimage =       4

     Reading data from directory:
     ./silicon.10.364.save

   Info: using nr1, nr2, nr3 values from input

   Info: using nr1, nr2, nr3 values from input

     IMPORTANT: XC functional enforced from input :
     Exchange-correlation      = SLA  PW   PBE  PBE ( 1  4  3  4 0 0)
     Any further DFT definition will be discarded
     Please, verify this is what you really want


     Parallelization info
     --------------------
     sticks:   dense  smooth     PW     G-vecs:    dense   smooth      PW
     Min         222     109     37                 4369     1545     284
     Max         223     110     38                 4370     1546     285
     Sum         889     439    151                17477     6183    1139



     Dynamical matrices for ( 4, 4, 4)  uniform grid of q-points
     (   8q-points):
       N         xq(1)         xq(2)         xq(3) 
       1   0.000000000   0.000000000   0.000000000
       2  -0.250000000   0.250000000  -0.250000000
       3   0.500000000  -0.500000000   0.500000000
       4   0.000000000   0.500000000   0.000000000
       5   0.750000000  -0.250000000   0.750000000
       6   0.500000000   0.000000000   0.500000000
       7   0.000000000  -1.000000000   0.000000000
       8  -0.500000000  -1.000000000   0.000000000

     Calculation of q =    0.0000000   0.0000000   0.0000000

                                                                                

     bravais-lattice index     =            2
     lattice parameter (alat)  =      10.3640  a.u.
     unit-cell volume          =     278.3058 (a.u.)^3
     number of atoms/cell      =            2
     number of atomic types    =            1
     kinetic-energy cut-off    =      30.0000  Ry
     charge density cut-off    =     240.0000  Ry
     convergence threshold     =      1.0E-12
     beta                      =       0.7000
     number of iterations used =            4
     Exchange-correlation      = SLA  PW   PBE  PBE ( 1  4  3  4 0 0)


     celldm(1)=   10.36400  celldm(2)=    0.00000  celldm(3)=    0.00000
     celldm(4)=    0.00000  celldm(5)=    0.00000  celldm(6)=    0.00000

     crystal axes: (cart. coord. in units of alat)
               a(1) = ( -0.5000  0.0000  0.5000 )  
               a(2) = (  0.0000  0.5000  0.5000 )  
               a(3) = ( -0.5000  0.5000  0.0000 )  

     reciprocal axes: (cart. coord. in units 2 pi/alat)
               b(1) = ( -1.0000 -1.0000  1.0000 )  
               b(2) = (  1.0000  1.0000  1.0000 )  
               b(3) = ( -1.0000  1.0000 -1.0000 )  


     Atoms inside the unit cell: 

     Cartesian axes

     site n.  atom      mass           positions (alat units)
        1     Si  28.0860   tau(    1) = (    0.00000    0.00000    0.00000  )
        2     Si  28.0860   tau(    2) = (    0.25000    0.25000    0.25000  )

     Computing dynamical matrix for 
                    q = (   0.0000000   0.0000000   0.0000000 )

     49 Sym.Ops. (with q -> -q+G )


     G cutoff =  652.9897  (   4369 G-vectors)     FFT grid: ( 40, 40, 40)
     G cutoff =  326.4948  (   1546 G-vectors)  smooth grid: ( 25, 25, 25)
     number of k points=    10

     PseudoPot. # 1 for Si read from file:
     /home/s1333534/quantum_espresso/qe-6.1/pseudo/si_pbe_v1.uspp.F.UPF.txt
     MD5 check sum: a056efeee980c13900f22a371efd63c1
     Pseudo is Ultrasoft + core correction, Zval =  4.0
     Generated by new atomic code, or converted to UPF format
     Using radial grid of  899 points,  6 beta functions with: 
                l(1) =   0
                l(2) =   0
                l(3) =   1
                l(4) =   1
                l(5) =   2
                l(6) =   2
     Q(r) pseudized with  8 coefficients,  rinner =    0.900   0.900   0.900
                                                       0.900   0.900

     Mode symmetry, O_h (m-3m)  point group:


     Electric field:
     Dielectric constant
     Born effective charges in two ways 


     Atomic displacements:
     There are   2 irreducible representations

     Representation     1      3 modes -T_2g G_25' G_5+  To be done

     Representation     2      3 modes -T_1u G_15  G_4-  To be done



     Alpha used in Ewald sum =   2.5000
     PHONON       :     0.98s CPU         1.45s WALL


     Electric Fields Calculation

      iter #   1 total cpu time :     2.6 secs   av.it.:   5.7
      thresh= 1.000E-02 alpha_mix =  0.700 |ddv_scf|^2 =  9.664E-08

      iter #   2 total cpu time :     3.4 secs   av.it.:  11.9
      thresh= 3.109E-05 alpha_mix =  0.700 |ddv_scf|^2 =  5.769E-09

      iter #   3 total cpu time :     4.1 secs   av.it.:  11.7
      thresh= 7.596E-06 alpha_mix =  0.700 |ddv_scf|^2 =  3.898E-10

      iter #   4 total cpu time :     5.1 secs   av.it.:  10.6
      thresh= 1.974E-06 alpha_mix =  0.700 |ddv_scf|^2 =  2.618E-12

      iter #   5 total cpu time :     5.7 secs   av.it.:  11.2
      thresh= 1.618E-07 alpha_mix =  0.700 |ddv_scf|^2 =  2.616E-15

     End of electric fields calculation

          Dielectric constant in cartesian axis 

          (      14.026856214      -0.000000000       0.000000000 )
          (      -0.000000000      14.026856214       0.000000000 )
          (      -0.000000000       0.000000000      14.026856214 )

          Effective charges (d Force / dE) in cartesian axis

           atom      1   Si 
      Ex  (       -0.03748        0.00000        0.00000 )
      Ey  (        0.00000       -0.03748       -0.00000 )
      Ez  (        0.00000       -0.00000       -0.03748 )
           atom      2   Si 
      Ex  (       -0.03748        0.00000       -0.00000 )
      Ey  (        0.00000       -0.03748       -0.00000 )
      Ez  (       -0.00000       -0.00000       -0.03748 )


     Representation #  1 modes #   1  2  3

     Self-consistent Calculation

      iter #   1 total cpu time :     7.1 secs   av.it.:   5.1
      thresh= 1.000E-02 alpha_mix =  0.700 |ddv_scf|^2 =  1.712E-08

      iter #   2 total cpu time :     8.0 secs   av.it.:  11.8
      thresh= 1.308E-05 alpha_mix =  0.700 |ddv_scf|^2 =  6.990E-10

      iter #   3 total cpu time :     8.8 secs   av.it.:  11.3
      thresh= 2.644E-06 alpha_mix =  0.700 |ddv_scf|^2 =  4.753E-11

      iter #   4 total cpu time :     9.5 secs   av.it.:  10.4
      thresh= 6.894E-07 alpha_mix =  0.700 |ddv_scf|^2 =  1.180E-13

     End of self-consistent calculation

     Convergence has been achieved 


     Representation #  2 modes #   4  5  6

     Self-consistent Calculation

      iter #   1 total cpu time :    10.6 secs   av.it.:   5.2
      thresh= 1.000E-02 alpha_mix =  0.700 |ddv_scf|^2 =  1.349E-08

      iter #   2 total cpu time :    11.4 secs   av.it.:  11.8
      thresh= 1.161E-05 alpha_mix =  0.700 |ddv_scf|^2 =  7.919E-10

      iter #   3 total cpu time :    12.2 secs   av.it.:  11.4
      thresh= 2.814E-06 alpha_mix =  0.700 |ddv_scf|^2 =  4.921E-11

      iter #   4 total cpu time :    13.1 secs   av.it.:  11.5
      thresh= 7.015E-07 alpha_mix =  0.700 |ddv_scf|^2 =  1.928E-13

     End of self-consistent calculation

     Convergence has been achieved 

     Number of q in the star =    1
     List of q in the star:
          1   0.000000000   0.000000000   0.000000000

          Dielectric constant in cartesian axis 

          (      14.026856214      -0.000000000       0.000000000 )
          (      -0.000000000      14.026856214       0.000000000 )
          (      -0.000000000       0.000000000      14.026856214 )

          Effective charges (d Force / dE) in cartesian axis

           atom      1   Si 
      Ex  (       -0.03748        0.00000        0.00000 )
      Ey  (        0.00000       -0.03748       -0.00000 )
      Ez  (        0.00000       -0.00000       -0.03748 )
           atom      2   Si 
      Ex  (       -0.03748        0.00000       -0.00000 )
      Ey  (        0.00000       -0.03748       -0.00000 )
      Ez  (       -0.00000       -0.00000       -0.03748 )

          Effective charges (d P / du) in cartesian axis 

           atom      1   Si 
      Px  (       -0.07241        0.00000        0.00000 )
      Py  (        0.00000       -0.07241       -0.00000 )
      Pz  (        0.00000       -0.00000       -0.07241 )
           atom      2   Si 
      Px  (       -0.07241        0.00000        0.00000 )
      Py  (       -0.00000       -0.07241        0.00000 )
      Pz  (        0.00000        0.00000       -0.07241 )

     Diagonalizing the dynamical matrix

     q = (    0.000000000   0.000000000   0.000000000 ) 

 **************************************************************************
     freq (    1) =      -0.434407 [THz] =     -14.490249 [cm-1]
     freq (    2) =      -0.434407 [THz] =     -14.490249 [cm-1]
     freq (    3) =      -0.434407 [THz] =     -14.490249 [cm-1]
     freq (    4) =      14.938265 [THz] =     498.286895 [cm-1]
     freq (    5) =      14.938265 [THz] =     498.286895 [cm-1]
     freq (    6) =      14.938265 [THz] =     498.286895 [cm-1]
 **************************************************************************

     Mode symmetry, O_h (m-3m)  point group:

     freq (  1 -  3) =        -14.5  [cm-1]   --> T_1u G_15  G_4- I  
     freq (  4 -  6) =        498.3  [cm-1]   --> T_2g G_25' G_5+ R  

     Calculation of q =   -0.2500000   0.2500000  -0.2500000

   Info: using nr1, nr2, nr3 values from input

   Info: using nr1, nr2, nr3 values from input

     Parallelization info
     --------------------
     sticks:   dense  smooth     PW     G-vecs:    dense   smooth      PW
     Min         222     109     37                 4369     1545     309
     Max         223     110     38                 4370     1546     312
     Sum         889     439    151                17477     6183    1243



     bravais-lattice index     =            2
     lattice parameter (alat)  =      10.3640  a.u.
     unit-cell volume          =     278.3058 (a.u.)^3
     number of atoms/cell      =            2
     number of atomic types    =            1
     number of electrons       =         8.00
     number of Kohn-Sham states=            4
     kinetic-energy cutoff     =      30.0000  Ry
     charge density cutoff     =     240.0000  Ry
     Exchange-correlation      = SLA  PW   PBE  PBE ( 1  4  3  4 0 0)

     celldm(1)=  10.364000  celldm(2)=   0.000000  celldm(3)=   0.000000
     celldm(4)=   0.000000  celldm(5)=   0.000000  celldm(6)=   0.000000

     crystal axes: (cart. coord. in units of alat)
               a(1) = (  -0.500000   0.000000   0.500000 )  
               a(2) = (   0.000000   0.500000   0.500000 )  
               a(3) = (  -0.500000   0.500000   0.000000 )  

     reciprocal axes: (cart. coord. in units 2 pi/alat)
               b(1) = ( -1.000000 -1.000000  1.000000 )  
               b(2) = (  1.000000  1.000000  1.000000 )  
               b(3) = ( -1.000000  1.000000 -1.000000 )  


     PseudoPot. # 1 for Si read from file:
     /home/s1333534/quantum_espresso/qe-6.1/pseudo/si_pbe_v1.uspp.F.UPF.txt
     MD5 check sum: a056efeee980c13900f22a371efd63c1
     Pseudo is Ultrasoft + core correction, Zval =  4.0
     Generated by new atomic code, or converted to UPF format
     Using radial grid of  899 points,  6 beta functions with: 
                l(1) =   0
                l(2) =   0
                l(3) =   1
                l(4) =   1
                l(5) =   2
                l(6) =   2
     Q(r) pseudized with  8 coefficients,  rinner =    0.900   0.900   0.900
                                                       0.900   0.900

     atomic species   valence    mass     pseudopotential
        Si             4.00    28.08600     Si( 1.00)

     48 Sym. Ops., with inversion, found



   Cartesian axes

     site n.     atom                  positions (alat units)
         1           Si  tau(   1) = (   0.0000000   0.0000000   0.0000000  )
         2           Si  tau(   2) = (   0.2500000   0.2500000   0.2500000  )

     number of k points=   120

     Number of k-points >= 100: set verbosity='high' to print them.

     Dense  grid:    17477 G-vectors     FFT dimensions: (  40,  40,  40)

     Smooth grid:     6183 G-vectors     FFT dimensions: (  25,  25,  25)

     Estimated max dynamical RAM per process >       1.79MB

     Estimated total allocated dynamical RAM >       7.17MB

     The potential is recalculated from file :
     ./_ph0/silicon.10.364.save/charge-density.dat

     Starting wfc are    8 atomic wfcs

     Band Structure Calculation
     Davidson diagonalization with overlap

     ethr =  1.25E-10,  avg # of iterations = 12.2

     total cpu time spent up to now is        1.4 secs

     End of band structure calculation

     Number of k-points >= 100: set verbosity='high' to print the bands.

     highest occupied level (ev):     5.6089

     Writing output data file silicon.10.364.save

                                                                                

     bravais-lattice index     =            2
     lattice parameter (alat)  =      10.3640  a.u.
     unit-cell volume          =     278.3058 (a.u.)^3
     number of atoms/cell      =            2
     number of atomic types    =            1
     kinetic-energy cut-off    =      30.0000  Ry
     charge density cut-off    =     240.0000  Ry
     convergence threshold     =      1.0E-12
     beta                      =       0.7000
     number of iterations used =            4
     Exchange-correlation      = SLA  PW   PBE  PBE ( 1  4  3  4 0 0)


     celldm(1)=   10.36400  celldm(2)=    0.00000  celldm(3)=    0.00000
     celldm(4)=    0.00000  celldm(5)=    0.00000  celldm(6)=    0.00000

     crystal axes: (cart. coord. in units of alat)
               a(1) = ( -0.5000  0.0000  0.5000 )  
               a(2) = (  0.0000  0.5000  0.5000 )  
               a(3) = ( -0.5000  0.5000  0.0000 )  

     reciprocal axes: (cart. coord. in units 2 pi/alat)
               b(1) = ( -1.0000 -1.0000  1.0000 )  
               b(2) = (  1.0000  1.0000  1.0000 )  
               b(3) = ( -1.0000  1.0000 -1.0000 )  


     Atoms inside the unit cell: 

     Cartesian axes

     site n.  atom      mass           positions (alat units)
        1     Si  28.0860   tau(    1) = (    0.00000    0.00000    0.00000  )
        2     Si  28.0860   tau(    2) = (    0.25000    0.25000    0.25000  )

     Computing dynamical matrix for 
                    q = (  -0.2500000   0.2500000  -0.2500000 )

      6 Sym.Ops. (no q -> -q+G )


     G cutoff =  652.9897  (   4369 G-vectors)     FFT grid: ( 40, 40, 40)
     G cutoff =  326.4948  (   1546 G-vectors)  smooth grid: ( 25, 25, 25)
     number of k points=   120

     PseudoPot. # 1 for Si read from file:
     /home/s1333534/quantum_espresso/qe-6.1/pseudo/si_pbe_v1.uspp.F.UPF.txt
     MD5 check sum: a056efeee980c13900f22a371efd63c1
     Pseudo is Ultrasoft + core correction, Zval =  4.0
     Generated by new atomic code, or converted to UPF format
     Using radial grid of  899 points,  6 beta functions with: 
                l(1) =   0
                l(2) =   0
                l(3) =   1
                l(4) =   1
                l(5) =   2
                l(6) =   2
     Q(r) pseudized with  8 coefficients,  rinner =    0.900   0.900   0.900
                                                       0.900   0.900

     Mode symmetry, C_3v (3m)   point group:


     Atomic displacements:
     There are   4 irreducible representations

     Representation     1      1 modes -A_1  L_1  To be done

     Representation     2      1 modes -A_1  L_1  To be done

     Representation     3      2 modes -E    L_3  To be done

     Representation     4      2 modes -E    L_3  To be done



     Alpha used in Ewald sum =   2.5000
     PHONON       :    12.22s CPU        16.94s WALL



     Representation #  1 mode #   1

     Self-consistent Calculation

      iter #   1 total cpu time :    17.4 secs   av.it.:   5.9
      thresh= 1.000E-02 alpha_mix =  0.700 |ddv_scf|^2 =  3.081E-04

      iter #   2 total cpu time :    18.1 secs   av.it.:   9.2
      thresh= 1.755E-03 alpha_mix =  0.700 |ddv_scf|^2 =  4.712E-03

      iter #   3 total cpu time :    18.7 secs   av.it.:   7.1
      thresh= 6.864E-03 alpha_mix =  0.700 |ddv_scf|^2 =  1.954E-07

      iter #   4 total cpu time :    19.3 secs   av.it.:   9.7
      thresh= 4.420E-05 alpha_mix =  0.700 |ddv_scf|^2 =  1.307E-08

      iter #   5 total cpu time :    20.0 secs   av.it.:   9.8
      thresh= 1.143E-05 alpha_mix =  0.700 |ddv_scf|^2 =  2.258E-10

      iter #   6 total cpu time :    20.7 secs   av.it.:   9.9
      thresh= 1.503E-06 alpha_mix =  0.700 |ddv_scf|^2 =  3.955E-10

      iter #   7 total cpu time :    21.3 secs   av.it.:   8.0
      thresh= 1.989E-06 alpha_mix =  0.700 |ddv_scf|^2 =  5.392E-11

      iter #   8 total cpu time :    21.8 secs   av.it.:   9.2
      thresh= 7.343E-07 alpha_mix =  0.700 |ddv_scf|^2 =  3.988E-13

     End of self-consistent calculation

     Convergence has been achieved 


     Representation #  2 mode #   2

     Self-consistent Calculation

      iter #   1 total cpu time :    22.4 secs   av.it.:   5.9
      thresh= 1.000E-02 alpha_mix =  0.700 |ddv_scf|^2 =  3.081E-04

      iter #   2 total cpu time :    23.1 secs   av.it.:   9.2
      thresh= 1.755E-03 alpha_mix =  0.700 |ddv_scf|^2 =  4.712E-03

      iter #   3 total cpu time :    23.8 secs   av.it.:   7.1
      thresh= 6.864E-03 alpha_mix =  0.700 |ddv_scf|^2 =  1.954E-07

      iter #   4 total cpu time :    24.4 secs   av.it.:   9.7
      thresh= 4.420E-05 alpha_mix =  0.700 |ddv_scf|^2 =  1.307E-08

      iter #   5 total cpu time :    25.1 secs   av.it.:   9.8
      thresh= 1.143E-05 alpha_mix =  0.700 |ddv_scf|^2 =  2.258E-10

      iter #   6 total cpu time :    25.8 secs   av.it.:   9.9
      thresh= 1.503E-06 alpha_mix =  0.700 |ddv_scf|^2 =  3.955E-10

      iter #   7 total cpu time :    26.4 secs   av.it.:   8.0
      thresh= 1.989E-06 alpha_mix =  0.700 |ddv_scf|^2 =  5.392E-11

      iter #   8 total cpu time :    27.0 secs   av.it.:   9.2
      thresh= 7.343E-07 alpha_mix =  0.700 |ddv_scf|^2 =  3.988E-13

     End of self-consistent calculation

     Convergence has been achieved 


     Representation #  3 modes #   3  4

     Self-consistent Calculation

      iter #   1 total cpu time :    28.1 secs   av.it.:   5.2
      thresh= 1.000E-02 alpha_mix =  0.700 |ddv_scf|^2 =  4.809E-08

      iter #   2 total cpu time :    29.4 secs   av.it.:  11.7
      thresh= 2.193E-05 alpha_mix =  0.700 |ddv_scf|^2 =  3.091E-09

      iter #   3 total cpu time :    30.7 secs   av.it.:  11.2
      thresh= 5.560E-06 alpha_mix =  0.700 |ddv_scf|^2 =  1.631E-10

      iter #   4 total cpu time :    32.3 secs   av.it.:  11.1
      thresh= 1.277E-06 alpha_mix =  0.700 |ddv_scf|^2 =  6.304E-13

     End of self-consistent calculation

     Convergence has been achieved 


     Representation #  4 modes #   5  6

     Self-consistent Calculation

      iter #   1 total cpu time :    33.5 secs   av.it.:   5.2
      thresh= 1.000E-02 alpha_mix =  0.700 |ddv_scf|^2 =  4.810E-08

      iter #   2 total cpu time :    34.9 secs   av.it.:  11.7
      thresh= 2.193E-05 alpha_mix =  0.700 |ddv_scf|^2 =  3.090E-09

      iter #   3 total cpu time :    36.2 secs   av.it.:  11.4
      thresh= 5.559E-06 alpha_mix =  0.700 |ddv_scf|^2 =  1.631E-10

      iter #   4 total cpu time :    37.4 secs   av.it.:  11.2
      thresh= 1.277E-06 alpha_mix =  0.700 |ddv_scf|^2 =  6.337E-13

     End of self-consistent calculation

     Convergence has been achieved 

     Number of q in the star =    8
     List of q in the star:
          1  -0.250000000   0.250000000  -0.250000000
          2   0.250000000  -0.250000000  -0.250000000
          3   0.250000000  -0.250000000   0.250000000
          4   0.250000000   0.250000000   0.250000000
          5  -0.250000000  -0.250000000  -0.250000000
          6  -0.250000000  -0.250000000   0.250000000
          7  -0.250000000   0.250000000   0.250000000
          8   0.250000000   0.250000000  -0.250000000

     Diagonalizing the dynamical matrix

     q = (   -0.250000000   0.250000000  -0.250000000 ) 

 **************************************************************************
     freq (    1) =       2.805108 [THz] =      93.568319 [cm-1]
     freq (    2) =       2.805108 [THz] =      93.568319 [cm-1]
     freq (    3) =       6.670484 [THz] =     222.503393 [cm-1]
     freq (    4) =      14.093308 [THz] =     470.102167 [cm-1]
     freq (    5) =      14.349466 [THz] =     478.646648 [cm-1]
     freq (    6) =      14.349466 [THz] =     478.646648 [cm-1]
 **************************************************************************

     Mode symmetry, C_3v (3m)   point group:

     freq (  1 -  2) =         93.6  [cm-1]   --> E    L_3           
     freq (  3 -  3) =        222.5  [cm-1]   --> A_1  L_1           
     freq (  4 -  4) =        470.1  [cm-1]   --> A_1  L_1           
     freq (  5 -  6) =        478.6  [cm-1]   --> E    L_3           

     Calculation of q =    0.5000000  -0.5000000   0.5000000

   Info: using nr1, nr2, nr3 values from input

   Info: using nr1, nr2, nr3 values from input

     Parallelization info
     --------------------
     sticks:   dense  smooth     PW     G-vecs:    dense   smooth      PW
     Min         222     109     40                 4369     1545     351
     Max         223     110     41                 4370     1546     354
     Sum         889     439    163                17477     6183    1411



     bravais-lattice index     =            2
     lattice parameter (alat)  =      10.3640  a.u.
     unit-cell volume          =     278.3058 (a.u.)^3
     number of atoms/cell      =            2
     number of atomic types    =            1
     number of electrons       =         8.00
     number of Kohn-Sham states=            4
     kinetic-energy cutoff     =      30.0000  Ry
     charge density cutoff     =     240.0000  Ry
     Exchange-correlation      = SLA  PW   PBE  PBE ( 1  4  3  4 0 0)

     celldm(1)=  10.364000  celldm(2)=   0.000000  celldm(3)=   0.000000
     celldm(4)=   0.000000  celldm(5)=   0.000000  celldm(6)=   0.000000

     crystal axes: (cart. coord. in units of alat)
               a(1) = (  -0.500000   0.000000   0.500000 )  
               a(2) = (   0.000000   0.500000   0.500000 )  
               a(3) = (  -0.500000   0.500000   0.000000 )  

     reciprocal axes: (cart. coord. in units 2 pi/alat)
               b(1) = ( -1.000000 -1.000000  1.000000 )  
               b(2) = (  1.000000  1.000000  1.000000 )  
               b(3) = ( -1.000000  1.000000 -1.000000 )  


     PseudoPot. # 1 for Si read from file:
     /home/s1333534/quantum_espresso/qe-6.1/pseudo/si_pbe_v1.uspp.F.UPF.txt
     MD5 check sum: a056efeee980c13900f22a371efd63c1
     Pseudo is Ultrasoft + core correction, Zval =  4.0
     Generated by new atomic code, or converted to UPF format
     Using radial grid of  899 points,  6 beta functions with: 
                l(1) =   0
                l(2) =   0
                l(3) =   1
                l(4) =   1
                l(5) =   2
                l(6) =   2
     Q(r) pseudized with  8 coefficients,  rinner =    0.900   0.900   0.900
                                                       0.900   0.900

     atomic species   valence    mass     pseudopotential
        Si             4.00    28.08600     Si( 1.00)

     48 Sym. Ops., with inversion, found



   Cartesian axes

     site n.     atom                  positions (alat units)
         1           Si  tau(   1) = (   0.0000000   0.0000000   0.0000000  )
         2           Si  tau(   2) = (   0.2500000   0.2500000   0.2500000  )

     number of k points=    60
                       cart. coord. in units 2pi/alat
        k(    1) = (  -0.1250000   0.1250000   0.1250000), wk =   0.0468750
        k(    2) = (   0.3750000  -0.3750000   0.6250000), wk =   0.0000000
        k(    3) = (  -0.3750000   0.3750000  -0.1250000), wk =   0.0468750
        k(    4) = (   0.1250000  -0.1250000   0.3750000), wk =   0.0000000
        k(    5) = (   0.3750000  -0.3750000   0.6250000), wk =   0.0468750
        k(    6) = (   0.8750000  -0.8750000   1.1250000), wk =   0.0000000
        k(    7) = (   0.1250000  -0.1250000   0.3750000), wk =   0.0468750
        k(    8) = (   0.6250000  -0.6250000   0.8750000), wk =   0.0000000
        k(    9) = (  -0.1250000   0.6250000   0.1250000), wk =   0.0937500
        k(   10) = (   0.3750000   0.1250000   0.6250000), wk =   0.0000000
        k(   11) = (   0.6250000  -0.1250000   0.8750000), wk =   0.0937500
        k(   12) = (   1.1250000  -0.6250000   1.3750000), wk =   0.0000000
        k(   13) = (   0.3750000   0.1250000   0.6250000), wk =   0.0937500
        k(   14) = (   0.8750000  -0.3750000   1.1250000), wk =   0.0000000
        k(   15) = (  -0.1250000  -0.8750000   0.1250000), wk =   0.0937500
        k(   16) = (   0.3750000  -1.3750000   0.6250000), wk =   0.0000000
        k(   17) = (  -0.3750000   0.3750000   0.3750000), wk =   0.0468750
        k(   18) = (   0.1250000  -0.1250000   0.8750000), wk =   0.0000000
        k(   19) = (   0.3750000  -0.3750000   1.1250000), wk =   0.0468750
        k(   20) = (   0.8750000  -0.8750000   1.6250000), wk =   0.0000000
        k(   21) = (   0.1250000  -0.1250000   0.1250000), wk =   0.0156250
        k(   22) = (   0.6250000  -0.6250000   0.6250000), wk =   0.0000000
        k(   23) = (  -0.3750000  -0.3750000  -0.1250000), wk =   0.0937500
        k(   24) = (   0.1250000  -0.8750000   0.3750000), wk =   0.0000000
        k(   25) = (  -0.1250000  -0.3750000   0.3750000), wk =   0.0468750
        k(   26) = (   0.3750000  -0.8750000   0.8750000), wk =   0.0000000
        k(   27) = (   0.3750000   0.3750000   0.6250000), wk =   0.0937500
        k(   28) = (   0.8750000  -0.1250000   1.1250000), wk =   0.0000000
        k(   29) = (   0.6250000   0.3750000  -0.3750000), wk =   0.0468750
        k(   30) = (   1.1250000  -0.1250000   0.1250000), wk =   0.0000000
        k(   31) = (   0.1250000   0.1250000   0.3750000), wk =   0.0937500
        k(   32) = (   0.6250000  -0.3750000   0.8750000), wk =   0.0000000
        k(   33) = (   0.3750000   0.1250000  -0.1250000), wk =   0.0468750
        k(   34) = (   0.8750000  -0.3750000   0.3750000), wk =   0.0000000
        k(   35) = (  -0.1250000  -0.6250000  -0.1250000), wk =   0.0468750
        k(   36) = (   0.3750000  -1.1250000   0.3750000), wk =   0.0000000
        k(   37) = (   0.1250000  -0.6250000   0.1250000), wk =   0.0468750
        k(   38) = (   0.6250000  -1.1250000   0.6250000), wk =   0.0000000
        k(   39) = (   0.6250000   0.1250000   0.8750000), wk =   0.0937500
        k(   40) = (   1.1250000  -0.3750000   1.3750000), wk =   0.0000000
        k(   41) = (  -0.8750000   0.1250000   0.6250000), wk =   0.0937500
        k(   42) = (  -0.3750000  -0.3750000   1.1250000), wk =   0.0000000
        k(   43) = (   0.8750000   0.1250000  -0.6250000), wk =   0.0937500
        k(   44) = (   1.3750000  -0.3750000  -0.1250000), wk =   0.0000000
        k(   45) = (   0.3750000  -0.1250000   0.6250000), wk =   0.0937500
        k(   46) = (   0.8750000  -0.6250000   1.1250000), wk =   0.0000000
        k(   47) = (  -0.6250000  -0.1250000   0.3750000), wk =   0.0937500
        k(   48) = (  -0.1250000  -0.6250000   0.8750000), wk =   0.0000000
        k(   49) = (   0.6250000  -0.1250000  -0.3750000), wk =   0.0937500
        k(   50) = (   1.1250000  -0.6250000   0.1250000), wk =   0.0000000
        k(   51) = (  -0.1250000   0.8750000  -0.1250000), wk =   0.0468750
        k(   52) = (   0.3750000   0.3750000   0.3750000), wk =   0.0000000
        k(   53) = (   0.1250000   0.8750000   0.1250000), wk =   0.0468750
        k(   54) = (   0.6250000   0.3750000   0.6250000), wk =   0.0000000
        k(   55) = (   0.3750000  -0.3750000   0.3750000), wk =   0.0156250
        k(   56) = (   0.8750000  -0.8750000   0.8750000), wk =   0.0000000
        k(   57) = (   0.3750000   0.3750000   1.1250000), wk =   0.0937500
        k(   58) = (   0.8750000  -0.1250000   1.6250000), wk =   0.0000000
        k(   59) = (   1.1250000   0.3750000  -0.3750000), wk =   0.0468750
        k(   60) = (   1.6250000  -0.1250000   0.1250000), wk =   0.0000000

     Dense  grid:    17477 G-vectors     FFT dimensions: (  40,  40,  40)

     Smooth grid:     6183 G-vectors     FFT dimensions: (  25,  25,  25)

     Estimated max dynamical RAM per process >       1.79MB

     Estimated total allocated dynamical RAM >       7.17MB

     The potential is recalculated from file :
     ./_ph0/silicon.10.364.save/charge-density.dat

     Starting wfc are    8 atomic wfcs

     Band Structure Calculation
     Davidson diagonalization with overlap

     ethr =  1.25E-10,  avg # of iterations = 12.2

     total cpu time spent up to now is        2.6 secs

     End of band structure calculation

          k =-0.1250 0.1250 0.1250 (   779 PWs)   bands (ev):

    -5.6700   4.2991   5.6089   5.6089

          k = 0.3750-0.3750 0.6250 (   773 PWs)   bands (ev):

    -3.5252  -0.7358   3.6553   4.3673

          k =-0.3750 0.3750-0.1250 (   781 PWs)   bands (ev):

    -4.6522   1.3221   3.6388   5.1311

          k = 0.1250-0.1250 0.3750 (   781 PWs)   bands (ev):

    -5.1465   2.6873   4.6107   4.6694

          k = 0.3750-0.3750 0.6250 (   773 PWs)   bands (ev):

    -3.5252  -0.7358   3.6553   4.3673

          k = 0.8750-0.8750 1.1250 (   779 PWs)   bands (ev):

    -5.6700   4.2991   5.6089   5.6089

          k = 0.1250-0.1250 0.3750 (   781 PWs)   bands (ev):

    -5.1465   2.6873   4.6107   4.6694

          k = 0.6250-0.6250 0.8750 (   781 PWs)   bands (ev):

    -4.6522   1.3221   3.6388   5.1311

          k =-0.1250 0.6250 0.1250 (   775 PWs)   bands (ev):

    -4.1238   0.9802   3.2953   3.7438

          k = 0.3750 0.1250 0.6250 (   775 PWs)   bands (ev):

    -3.7128   0.1192   2.6574   4.0164

          k = 0.6250-0.1250 0.8750 (   762 PWs)   bands (ev):

    -2.5003  -0.9679   1.9566   3.0226

          k = 1.1250-0.6250 1.3750 (   781 PWs)   bands (ev):

    -4.6522   1.3221   3.6388   5.1311

          k = 0.3750 0.1250 0.6250 (   775 PWs)   bands (ev):

    -3.7128   0.1192   2.6574   4.0164

          k = 0.8750-0.3750 1.1250 (   775 PWs)   bands (ev):

    -4.1238   0.9802   3.2953   3.7438

          k =-0.1250-0.8750 0.1250 (   766 PWs)   bands (ev):

    -2.6644  -0.8726   2.5600   3.2805

          k = 0.3750-1.3750 0.6250 (   773 PWs)   bands (ev):

    -3.5252  -0.7358   3.6553   4.3673

          k =-0.3750 0.3750 0.3750 (   769 PWs)   bands (ev):

    -4.2238   0.0462   4.8269   4.8269

          k = 0.1250-0.1250 0.8750 (   766 PWs)   bands (ev):

    -2.6644  -0.8726   2.5600   3.2805

          k = 0.3750-0.3750 1.1250 (   773 PWs)   bands (ev):

    -3.0334  -0.6608   2.0109   4.0535

          k = 0.8750-0.8750 1.6250 (   775 PWs)   bands (ev):

    -4.1238   0.9802   3.2953   3.7438

          k = 0.1250-0.1250 0.1250 (   779 PWs)   bands (ev):

    -5.6700   4.2991   5.6089   5.6089

          k = 0.6250-0.6250 0.6250 (   769 PWs)   bands (ev):

    -4.2238   0.0462   4.8269   4.8269

          k =-0.3750-0.3750-0.1250 (   781 PWs)   bands (ev):

    -4.6522   1.3221   3.6388   5.1311

          k = 0.1250-0.8750 0.3750 (   762 PWs)   bands (ev):

    -2.5003  -0.9679   1.9566   3.0226

          k =-0.1250-0.3750 0.3750 (   781 PWs)   bands (ev):

    -4.6522   1.3221   3.6388   5.1311

          k = 0.3750-0.8750 0.8750 (   775 PWs)   bands (ev):

    -4.1238   0.9802   3.2953   3.7438

          k = 0.3750 0.3750 0.6250 (   773 PWs)   bands (ev):

    -3.5252  -0.7358   3.6553   4.3673

          k = 0.8750-0.1250 1.1250 (   766 PWs)   bands (ev):

    -2.6644  -0.8726   2.5600   3.2805

          k = 0.6250 0.3750-0.3750 (   773 PWs)   bands (ev):

    -3.5252  -0.7358   3.6553   4.3673

          k = 1.1250-0.1250 0.1250 (   766 PWs)   bands (ev):

    -2.6644  -0.8726   2.5600   3.2805

          k = 0.1250 0.1250 0.3750 (   781 PWs)   bands (ev):

    -5.1465   2.6873   4.6107   4.6694

          k = 0.6250-0.3750 0.8750 (   775 PWs)   bands (ev):

    -3.7128   0.1192   2.6574   4.0164

          k = 0.3750 0.1250-0.1250 (   781 PWs)   bands (ev):

    -5.1465   2.6873   4.6107   4.6694

          k = 0.8750-0.3750 0.3750 (   773 PWs)   bands (ev):

    -3.0334  -0.6608   2.0109   4.0535

          k =-0.1250-0.6250-0.1250 (   775 PWs)   bands (ev):

    -4.1238   0.9802   3.2953   3.7438

          k = 0.3750-1.1250 0.3750 (   773 PWs)   bands (ev):

    -3.0334  -0.6608   2.0109   4.0535

          k = 0.1250-0.6250 0.1250 (   775 PWs)   bands (ev):

    -4.1238   0.9802   3.2953   3.7438

          k = 0.6250-1.1250 0.6250 (   781 PWs)   bands (ev):

    -4.6522   1.3221   3.6388   5.1311

          k = 0.6250 0.1250 0.8750 (   762 PWs)   bands (ev):

    -2.5003  -0.9679   1.9566   3.0226

          k = 1.1250-0.3750 1.3750 (   775 PWs)   bands (ev):

    -3.7128   0.1192   2.6574   4.0164

          k =-0.8750 0.1250 0.6250 (   762 PWs)   bands (ev):

    -2.5003  -0.9679   1.9566   3.0226

          k =-0.3750-0.3750 1.1250 (   773 PWs)   bands (ev):

    -3.0334  -0.6608   2.0109   4.0535

          k = 0.8750 0.1250-0.6250 (   762 PWs)   bands (ev):

    -2.5003  -0.9679   1.9566   3.0226

          k = 1.3750-0.3750-0.1250 (   775 PWs)   bands (ev):

    -3.7128   0.1192   2.6574   4.0164

          k = 0.3750-0.1250 0.6250 (   775 PWs)   bands (ev):

    -3.7128   0.1192   2.6574   4.0164

          k = 0.8750-0.6250 1.1250 (   781 PWs)   bands (ev):

    -5.1465   2.6873   4.6107   4.6694

          k =-0.6250-0.1250 0.3750 (   775 PWs)   bands (ev):

    -3.7128   0.1192   2.6574   4.0164

          k =-0.1250-0.6250 0.8750 (   762 PWs)   bands (ev):

    -2.5003  -0.9679   1.9566   3.0226

          k = 0.6250-0.1250-0.3750 (   775 PWs)   bands (ev):

    -3.7128   0.1192   2.6574   4.0164

          k = 1.1250-0.6250 0.1250 (   762 PWs)   bands (ev):

    -2.5003  -0.9679   1.9566   3.0226

          k =-0.1250 0.8750-0.1250 (   766 PWs)   bands (ev):

    -2.6644  -0.8726   2.5600   3.2805

          k = 0.3750 0.3750 0.3750 (   769 PWs)   bands (ev):

    -4.2238   0.0462   4.8269   4.8269

          k = 0.1250 0.8750 0.1250 (   766 PWs)   bands (ev):

    -2.6644  -0.8726   2.5600   3.2805

          k = 0.6250 0.3750 0.6250 (   773 PWs)   bands (ev):

    -3.5252  -0.7358   3.6553   4.3673

          k = 0.3750-0.3750 0.3750 (   769 PWs)   bands (ev):

    -4.2238   0.0462   4.8269   4.8269

          k = 0.8750-0.8750 0.8750 (   779 PWs)   bands (ev):

    -5.6700   4.2991   5.6089   5.6089

          k = 0.3750 0.3750 1.1250 (   773 PWs)   bands (ev):

    -3.0334  -0.6608   2.0109   4.0535

          k = 0.8750-0.1250 1.6250 (   762 PWs)   bands (ev):

    -2.5003  -0.9679   1.9566   3.0226

          k = 1.1250 0.3750-0.3750 (   773 PWs)   bands (ev):

    -3.0334  -0.6608   2.0109   4.0535

          k = 1.6250-0.1250 0.1250 (   781 PWs)   bands (ev):

    -5.1465   2.6873   4.6107   4.6694

     highest occupied level (ev):     5.6089

     Writing output data file silicon.10.364.save

                                                                                

     bravais-lattice index     =            2
     lattice parameter (alat)  =      10.3640  a.u.
     unit-cell volume          =     278.3058 (a.u.)^3
     number of atoms/cell      =            2
     number of atomic types    =            1
     kinetic-energy cut-off    =      30.0000  Ry
     charge density cut-off    =     240.0000  Ry
     convergence threshold     =      1.0E-12
     beta                      =       0.7000
     number of iterations used =            4
     Exchange-correlation      = SLA  PW   PBE  PBE ( 1  4  3  4 0 0)


     celldm(1)=   10.36400  celldm(2)=    0.00000  celldm(3)=    0.00000
     celldm(4)=    0.00000  celldm(5)=    0.00000  celldm(6)=    0.00000

     crystal axes: (cart. coord. in units of alat)
               a(1) = ( -0.5000  0.0000  0.5000 )  
               a(2) = (  0.0000  0.5000  0.5000 )  
               a(3) = ( -0.5000  0.5000  0.0000 )  

     reciprocal axes: (cart. coord. in units 2 pi/alat)
               b(1) = ( -1.0000 -1.0000  1.0000 )  
               b(2) = (  1.0000  1.0000  1.0000 )  
               b(3) = ( -1.0000  1.0000 -1.0000 )  


     Atoms inside the unit cell: 

     Cartesian axes

     site n.  atom      mass           positions (alat units)
        1     Si  28.0860   tau(    1) = (    0.00000    0.00000    0.00000  )
        2     Si  28.0860   tau(    2) = (    0.25000    0.25000    0.25000  )

     Computing dynamical matrix for 
                    q = (   0.5000000  -0.5000000   0.5000000 )

     13 Sym.Ops. (with q -> -q+G )


     G cutoff =  652.9897  (   4369 G-vectors)     FFT grid: ( 40, 40, 40)
     G cutoff =  326.4948  (   1546 G-vectors)  smooth grid: ( 25, 25, 25)
     number of k points=    60

     PseudoPot. # 1 for Si read from file:
     /home/s1333534/quantum_espresso/qe-6.1/pseudo/si_pbe_v1.uspp.F.UPF.txt
     MD5 check sum: a056efeee980c13900f22a371efd63c1
     Pseudo is Ultrasoft + core correction, Zval =  4.0
     Generated by new atomic code, or converted to UPF format
     Using radial grid of  899 points,  6 beta functions with: 
                l(1) =   0
                l(2) =   0
                l(3) =   1
                l(4) =   1
                l(5) =   2
                l(6) =   2
     Q(r) pseudized with  8 coefficients,  rinner =    0.900   0.900   0.900
                                                       0.900   0.900


     Atomic displacements:
     There are   4 irreducible representations

     Representation     1      1 modes -  To be done

     Representation     2      1 modes -  To be done

     Representation     3      2 modes -  To be done

     Representation     4      2 modes -  To be done



     Alpha used in Ewald sum =   2.5000
     PHONON       :    30.01s CPU        39.87s WALL



     Representation #  1 mode #   1

     Self-consistent Calculation

      iter #   1 total cpu time :    40.2 secs   av.it.:   5.0
      thresh= 1.000E-02 alpha_mix =  0.700 |ddv_scf|^2 =  3.021E-06

      iter #   2 total cpu time :    40.7 secs   av.it.:  10.1
      thresh= 1.738E-04 alpha_mix =  0.700 |ddv_scf|^2 =  2.795E-06

      iter #   3 total cpu time :    41.1 secs   av.it.:   9.4
      thresh= 1.672E-04 alpha_mix =  0.700 |ddv_scf|^2 =  1.650E-09

      iter #   4 total cpu time :    41.5 secs   av.it.:   9.6
      thresh= 4.062E-06 alpha_mix =  0.700 |ddv_scf|^2 =  1.562E-11

      iter #   5 total cpu time :    41.9 secs   av.it.:   9.5
      thresh= 3.952E-07 alpha_mix =  0.700 |ddv_scf|^2 =  2.274E-13

     End of self-consistent calculation

     Convergence has been achieved 


     Representation #  2 mode #   2

     Self-consistent Calculation

      iter #   1 total cpu time :    42.6 secs   av.it.:   6.0
      thresh= 1.000E-02 alpha_mix =  0.700 |ddv_scf|^2 =  4.294E-05

      iter #   2 total cpu time :    43.0 secs   av.it.:  10.0
      thresh= 6.553E-04 alpha_mix =  0.700 |ddv_scf|^2 =  1.339E-04

      iter #   3 total cpu time :    43.5 secs   av.it.:   8.9
      thresh= 1.157E-03 alpha_mix =  0.700 |ddv_scf|^2 =  1.022E-08

      iter #   4 total cpu time :    43.9 secs   av.it.:  10.1
      thresh= 1.011E-05 alpha_mix =  0.700 |ddv_scf|^2 =  5.161E-10

      iter #   5 total cpu time :    44.4 secs   av.it.:  10.4
      thresh= 2.272E-06 alpha_mix =  0.700 |ddv_scf|^2 =  1.518E-11

      iter #   6 total cpu time :    44.9 secs   av.it.:   9.9
      thresh= 3.896E-07 alpha_mix =  0.700 |ddv_scf|^2 =  1.124E-13

     End of self-consistent calculation

     Convergence has been achieved 


     Representation #  3 modes #   3  4

     Self-consistent Calculation

      iter #   1 total cpu time :    45.6 secs   av.it.:   5.1
      thresh= 1.000E-02 alpha_mix =  0.700 |ddv_scf|^2 =  1.951E-08

      iter #   2 total cpu time :    46.5 secs   av.it.:  11.1
      thresh= 1.397E-05 alpha_mix =  0.700 |ddv_scf|^2 =  1.147E-09

      iter #   3 total cpu time :    47.4 secs   av.it.:  10.9
      thresh= 3.386E-06 alpha_mix =  0.700 |ddv_scf|^2 =  3.887E-11

      iter #   4 total cpu time :    48.2 secs   av.it.:  10.8
      thresh= 6.235E-07 alpha_mix =  0.700 |ddv_scf|^2 =  3.175E-13

     End of self-consistent calculation

     Convergence has been achieved 


     Representation #  4 modes #   5  6

     Self-consistent Calculation

      iter #   1 total cpu time :    48.9 secs   av.it.:   5.1
      thresh= 1.000E-02 alpha_mix =  0.700 |ddv_scf|^2 =  1.002E-07

      iter #   2 total cpu time :    49.8 secs   av.it.:  11.2
      thresh= 3.165E-05 alpha_mix =  0.700 |ddv_scf|^2 =  8.053E-09

      iter #   3 total cpu time :    50.6 secs   av.it.:  11.1
      thresh= 8.974E-06 alpha_mix =  0.700 |ddv_scf|^2 =  2.109E-10

      iter #   4 total cpu time :    51.3 secs   av.it.:  10.1
      thresh= 1.452E-06 alpha_mix =  0.700 |ddv_scf|^2 =  3.877E-13

     End of self-consistent calculation

     Convergence has been achieved 

     Number of q in the star =    4
     List of q in the star:
          1   0.500000000  -0.500000000   0.500000000
          2   0.500000000   0.500000000   0.500000000
          3  -0.500000000   0.500000000   0.500000000
          4   0.500000000   0.500000000  -0.500000000

     Diagonalizing the dynamical matrix

     q = (    0.500000000  -0.500000000   0.500000000 ) 

 **************************************************************************
     freq (    1) =       3.349132 [THz] =     111.715033 [cm-1]
     freq (    2) =       3.349132 [THz] =     111.715033 [cm-1]
     freq (    3) =      11.061886 [THz] =     368.984786 [cm-1]
     freq (    4) =      11.795509 [THz] =     393.455833 [cm-1]
     freq (    5) =      14.127168 [THz] =     471.231615 [cm-1]
     freq (    6) =      14.127168 [THz] =     471.231615 [cm-1]
 **************************************************************************

     Calculation of q =    0.0000000   0.5000000   0.0000000

   Info: using nr1, nr2, nr3 values from input

   Info: using nr1, nr2, nr3 values from input

     Parallelization info
     --------------------
     sticks:   dense  smooth     PW     G-vecs:    dense   smooth      PW
     Min         222     109     40                 4369     1545     322
     Max         223     110     42                 4370     1547     323
     Sum         889     439    163                17477     6183    1291



     bravais-lattice index     =            2
     lattice parameter (alat)  =      10.3640  a.u.
     unit-cell volume          =     278.3058 (a.u.)^3
     number of atoms/cell      =            2
     number of atomic types    =            1
     number of electrons       =         8.00
     number of Kohn-Sham states=            4
     kinetic-energy cutoff     =      30.0000  Ry
     charge density cutoff     =     240.0000  Ry
     Exchange-correlation      = SLA  PW   PBE  PBE ( 1  4  3  4 0 0)

     celldm(1)=  10.364000  celldm(2)=   0.000000  celldm(3)=   0.000000
     celldm(4)=   0.000000  celldm(5)=   0.000000  celldm(6)=   0.000000

     crystal axes: (cart. coord. in units of alat)
               a(1) = (  -0.500000   0.000000   0.500000 )  
               a(2) = (   0.000000   0.500000   0.500000 )  
               a(3) = (  -0.500000   0.500000   0.000000 )  

     reciprocal axes: (cart. coord. in units 2 pi/alat)
               b(1) = ( -1.000000 -1.000000  1.000000 )  
               b(2) = (  1.000000  1.000000  1.000000 )  
               b(3) = ( -1.000000  1.000000 -1.000000 )  


     PseudoPot. # 1 for Si read from file:
     /home/s1333534/quantum_espresso/qe-6.1/pseudo/si_pbe_v1.uspp.F.UPF.txt
     MD5 check sum: a056efeee980c13900f22a371efd63c1
     Pseudo is Ultrasoft + core correction, Zval =  4.0
     Generated by new atomic code, or converted to UPF format
     Using radial grid of  899 points,  6 beta functions with: 
                l(1) =   0
                l(2) =   0
                l(3) =   1
                l(4) =   1
                l(5) =   2
                l(6) =   2
     Q(r) pseudized with  8 coefficients,  rinner =    0.900   0.900   0.900
                                                       0.900   0.900

     atomic species   valence    mass     pseudopotential
        Si             4.00    28.08600     Si( 1.00)

     48 Sym. Ops., with inversion, found



   Cartesian axes

     site n.     atom                  positions (alat units)
         1           Si  tau(   1) = (   0.0000000   0.0000000   0.0000000  )
         2           Si  tau(   2) = (   0.2500000   0.2500000   0.2500000  )

     number of k points=    80
                       cart. coord. in units 2pi/alat
        k(    1) = (  -0.1250000   0.1250000   0.1250000), wk =   0.0312500
        k(    2) = (  -0.1250000   0.6250000   0.1250000), wk =   0.0000000
        k(    3) = (  -0.3750000   0.3750000  -0.1250000), wk =   0.0625000
        k(    4) = (  -0.3750000   0.8750000  -0.1250000), wk =   0.0000000
        k(    5) = (   0.3750000  -0.3750000   0.6250000), wk =   0.0625000
        k(    6) = (   0.3750000   0.1250000   0.6250000), wk =   0.0000000
        k(    7) = (   0.1250000  -0.1250000   0.3750000), wk =   0.0625000
        k(    8) = (   0.1250000   0.3750000   0.3750000), wk =   0.0000000
        k(    9) = (  -0.1250000   0.6250000   0.1250000), wk =   0.0312500
        k(   10) = (  -0.1250000   1.1250000   0.1250000), wk =   0.0000000
        k(   11) = (   0.6250000  -0.1250000   0.8750000), wk =   0.0625000
        k(   12) = (   0.6250000   0.3750000   0.8750000), wk =   0.0000000
        k(   13) = (   0.3750000   0.1250000   0.6250000), wk =   0.0625000
        k(   14) = (   0.3750000   0.6250000   0.6250000), wk =   0.0000000
        k(   15) = (  -0.1250000  -0.8750000   0.1250000), wk =   0.0312500
        k(   16) = (  -0.1250000  -0.3750000   0.1250000), wk =   0.0000000
        k(   17) = (  -0.3750000   0.3750000   0.3750000), wk =   0.0312500
        k(   18) = (  -0.3750000   0.8750000   0.3750000), wk =   0.0000000
        k(   19) = (   0.3750000  -0.3750000   1.1250000), wk =   0.0625000
        k(   20) = (   0.3750000   0.1250000   1.1250000), wk =   0.0000000
        k(   21) = (  -0.1250000  -0.1250000   0.1250000), wk =   0.0312500
        k(   22) = (  -0.1250000   0.3750000   0.1250000), wk =   0.0000000
        k(   23) = (   0.1250000  -0.3750000   0.3750000), wk =   0.0625000
        k(   24) = (   0.1250000   0.1250000   0.3750000), wk =   0.0000000
        k(   25) = (   0.3750000  -0.1250000   0.3750000), wk =   0.0312500
        k(   26) = (   0.3750000   0.3750000   0.3750000), wk =   0.0000000
        k(   27) = (   0.3750000   0.1250000   0.3750000), wk =   0.0312500
        k(   28) = (   0.3750000   0.6250000   0.3750000), wk =   0.0000000
        k(   29) = (  -0.6250000   0.3750000  -0.3750000), wk =   0.0625000
        k(   30) = (  -0.6250000   0.8750000  -0.3750000), wk =   0.0000000
        k(   31) = (  -0.3750000   0.6250000  -0.3750000), wk =   0.0312500
        k(   32) = (  -0.3750000   1.1250000  -0.3750000), wk =   0.0000000
        k(   33) = (  -0.3750000  -0.6250000  -0.3750000), wk =   0.0312500
        k(   34) = (  -0.3750000  -0.1250000  -0.3750000), wk =   0.0000000
        k(   35) = (  -0.3750000   0.1250000  -0.1250000), wk =   0.0625000
        k(   36) = (  -0.3750000   0.6250000  -0.1250000), wk =   0.0000000
        k(   37) = (  -0.1250000   0.3750000  -0.1250000), wk =   0.0312500
        k(   38) = (  -0.1250000   0.8750000  -0.1250000), wk =   0.0000000
        k(   39) = (  -0.1250000  -0.3750000  -0.1250000), wk =   0.0312500
        k(   40) = (  -0.1250000   0.1250000  -0.1250000), wk =   0.0000000
        k(   41) = (  -0.1250000  -0.6250000   0.1250000), wk =   0.0312500
        k(   42) = (  -0.1250000  -0.1250000   0.1250000), wk =   0.0000000
        k(   43) = (   0.6250000  -0.1250000  -0.1250000), wk =   0.0625000
        k(   44) = (   0.6250000   0.3750000  -0.1250000), wk =   0.0000000
        k(   45) = (   0.6250000   0.1250000   0.1250000), wk =   0.0625000
        k(   46) = (   0.6250000   0.6250000   0.1250000), wk =   0.0000000
        k(   47) = (  -0.8750000   0.1250000  -0.6250000), wk =   0.0625000
        k(   48) = (  -0.8750000   0.6250000  -0.6250000), wk =   0.0000000
        k(   49) = (  -0.1250000   0.6250000  -0.8750000), wk =   0.0625000
        k(   50) = (  -0.1250000   1.1250000  -0.8750000), wk =   0.0000000
        k(   51) = (  -0.1250000   0.8750000  -0.6250000), wk =   0.0625000
        k(   52) = (  -0.1250000   1.3750000  -0.6250000), wk =   0.0000000
        k(   53) = (  -0.1250000  -0.8750000  -0.6250000), wk =   0.0625000
        k(   54) = (  -0.1250000  -0.3750000  -0.6250000), wk =   0.0000000
        k(   55) = (   0.8750000  -0.6250000   0.1250000), wk =   0.0625000
        k(   56) = (   0.8750000  -0.1250000   0.1250000), wk =   0.0000000
        k(   57) = (  -0.6250000  -0.1250000  -0.3750000), wk =   0.0625000
        k(   58) = (  -0.6250000   0.3750000  -0.3750000), wk =   0.0000000
        k(   59) = (   0.1250000   0.3750000  -0.6250000), wk =   0.0625000
        k(   60) = (   0.1250000   0.8750000  -0.6250000), wk =   0.0000000
        k(   61) = (   0.1250000   0.6250000  -0.3750000), wk =   0.0625000
        k(   62) = (   0.1250000   1.1250000  -0.3750000), wk =   0.0000000
        k(   63) = (   0.1250000  -0.6250000  -0.3750000), wk =   0.0625000
        k(   64) = (   0.1250000  -0.1250000  -0.3750000), wk =   0.0000000
        k(   65) = (   0.6250000  -0.3750000  -0.1250000), wk =   0.0625000
        k(   66) = (   0.6250000   0.1250000  -0.1250000), wk =   0.0000000
        k(   67) = (  -0.1250000   0.8750000   0.1250000), wk =   0.0312500
        k(   68) = (  -0.1250000   1.3750000   0.1250000), wk =   0.0000000
        k(   69) = (  -0.8750000  -0.1250000  -0.1250000), wk =   0.0625000
        k(   70) = (  -0.8750000   0.3750000  -0.1250000), wk =   0.0000000
        k(   71) = (  -0.8750000   0.1250000   0.1250000), wk =   0.0625000
        k(   72) = (  -0.8750000   0.6250000   0.1250000), wk =   0.0000000
        k(   73) = (  -0.3750000  -0.3750000   0.3750000), wk =   0.0312500
        k(   74) = (  -0.3750000   0.1250000   0.3750000), wk =   0.0000000
        k(   75) = (  -1.1250000   0.3750000  -0.3750000), wk =   0.0625000
        k(   76) = (  -1.1250000   0.8750000  -0.3750000), wk =   0.0000000
        k(   77) = (  -0.3750000   1.1250000  -0.3750000), wk =   0.0312500
        k(   78) = (  -0.3750000   1.6250000  -0.3750000), wk =   0.0000000
        k(   79) = (  -0.3750000  -1.1250000  -0.3750000), wk =   0.0312500
        k(   80) = (  -0.3750000  -0.6250000  -0.3750000), wk =   0.0000000

     Dense  grid:    17477 G-vectors     FFT dimensions: (  40,  40,  40)

     Smooth grid:     6183 G-vectors     FFT dimensions: (  25,  25,  25)

     Estimated max dynamical RAM per process >       1.79MB

     Estimated total allocated dynamical RAM >       7.17MB

     The potential is recalculated from file :
     ./_ph0/silicon.10.364.save/charge-density.dat

     Starting wfc are    8 atomic wfcs

     Band Structure Calculation
     Davidson diagonalization with overlap

     ethr =  1.25E-10,  avg # of iterations = 12.2

     total cpu time spent up to now is        3.7 secs

     End of band structure calculation

          k =-0.1250 0.1250 0.1250 (   779 PWs)   bands (ev):

    -5.6700   4.2991   5.6089   5.6089

          k =-0.1250 0.6250 0.1250 (   775 PWs)   bands (ev):

    -4.1238   0.9802   3.2953   3.7438

          k =-0.3750 0.3750-0.1250 (   781 PWs)   bands (ev):

    -4.6522   1.3221   3.6388   5.1311

          k =-0.3750 0.8750-0.1250 (   762 PWs)   bands (ev):

    -2.5003  -0.9679   1.9566   3.0226

          k = 0.3750-0.3750 0.6250 (   773 PWs)   bands (ev):

    -3.5252  -0.7358   3.6553   4.3673

          k = 0.3750 0.1250 0.6250 (   775 PWs)   bands (ev):

    -3.7128   0.1192   2.6574   4.0164

          k = 0.1250-0.1250 0.3750 (   781 PWs)   bands (ev):

    -5.1465   2.6873   4.6107   4.6694

          k = 0.1250 0.3750 0.3750 (   781 PWs)   bands (ev):

    -4.6522   1.3221   3.6388   5.1311

          k =-0.1250 0.6250 0.1250 (   775 PWs)   bands (ev):

    -4.1238   0.9802   3.2953   3.7438

          k =-0.1250 1.1250 0.1250 (   766 PWs)   bands (ev):

    -2.6644  -0.8726   2.5600   3.2805

          k = 0.6250-0.1250 0.8750 (   762 PWs)   bands (ev):

    -2.5003  -0.9679   1.9566   3.0226

          k = 0.6250 0.3750 0.8750 (   775 PWs)   bands (ev):

    -3.7128   0.1192   2.6574   4.0164

          k = 0.3750 0.1250 0.6250 (   775 PWs)   bands (ev):

    -3.7128   0.1192   2.6574   4.0164

          k = 0.3750 0.6250 0.6250 (   773 PWs)   bands (ev):

    -3.5252  -0.7358   3.6553   4.3673

          k =-0.1250-0.8750 0.1250 (   766 PWs)   bands (ev):

    -2.6644  -0.8726   2.5600   3.2805

          k =-0.1250-0.3750 0.1250 (   781 PWs)   bands (ev):

    -5.1465   2.6873   4.6107   4.6694

          k =-0.3750 0.3750 0.3750 (   769 PWs)   bands (ev):

    -4.2238   0.0462   4.8269   4.8269

          k =-0.3750 0.8750 0.3750 (   773 PWs)   bands (ev):

    -3.0334  -0.6608   2.0109   4.0535

          k = 0.3750-0.3750 1.1250 (   773 PWs)   bands (ev):

    -3.0334  -0.6608   2.0109   4.0535

          k = 0.3750 0.1250 1.1250 (   762 PWs)   bands (ev):

    -2.5003  -0.9679   1.9566   3.0226

          k =-0.1250-0.1250 0.1250 (   779 PWs)   bands (ev):

    -5.6700   4.2991   5.6089   5.6089

          k =-0.1250 0.3750 0.1250 (   781 PWs)   bands (ev):

    -5.1465   2.6873   4.6107   4.6694

          k = 0.1250-0.3750 0.3750 (   781 PWs)   bands (ev):

    -4.6522   1.3221   3.6388   5.1311

          k = 0.1250 0.1250 0.3750 (   781 PWs)   bands (ev):

    -5.1465   2.6873   4.6107   4.6694

          k = 0.3750-0.1250 0.3750 (   781 PWs)   bands (ev):

    -4.6522   1.3221   3.6388   5.1311

          k = 0.3750 0.3750 0.3750 (   769 PWs)   bands (ev):

    -4.2238   0.0462   4.8269   4.8269

          k = 0.3750 0.1250 0.3750 (   781 PWs)   bands (ev):

    -4.6522   1.3221   3.6388   5.1311

          k = 0.3750 0.6250 0.3750 (   773 PWs)   bands (ev):

    -3.5252  -0.7358   3.6553   4.3673

          k =-0.6250 0.3750-0.3750 (   773 PWs)   bands (ev):

    -3.5252  -0.7358   3.6553   4.3673

          k =-0.6250 0.8750-0.3750 (   775 PWs)   bands (ev):

    -3.7128   0.1192   2.6574   4.0164

          k =-0.3750 0.6250-0.3750 (   773 PWs)   bands (ev):

    -3.5252  -0.7358   3.6553   4.3673

          k =-0.3750 1.1250-0.3750 (   773 PWs)   bands (ev):

    -3.0334  -0.6608   2.0109   4.0535

          k =-0.3750-0.6250-0.3750 (   773 PWs)   bands (ev):

    -3.5252  -0.7358   3.6553   4.3673

          k =-0.3750-0.1250-0.3750 (   781 PWs)   bands (ev):

    -4.6522   1.3221   3.6388   5.1311

          k =-0.3750 0.1250-0.1250 (   781 PWs)   bands (ev):

    -5.1465   2.6873   4.6107   4.6694

          k =-0.3750 0.6250-0.1250 (   775 PWs)   bands (ev):

    -3.7128   0.1192   2.6574   4.0164

          k =-0.1250 0.3750-0.1250 (   781 PWs)   bands (ev):

    -5.1465   2.6873   4.6107   4.6694

          k =-0.1250 0.8750-0.1250 (   766 PWs)   bands (ev):

    -2.6644  -0.8726   2.5600   3.2805

          k =-0.1250-0.3750-0.1250 (   781 PWs)   bands (ev):

    -5.1465   2.6873   4.6107   4.6694

          k =-0.1250 0.1250-0.1250 (   779 PWs)   bands (ev):

    -5.6700   4.2991   5.6089   5.6089

          k =-0.1250-0.6250 0.1250 (   775 PWs)   bands (ev):

    -4.1238   0.9802   3.2953   3.7438

          k =-0.1250-0.1250 0.1250 (   779 PWs)   bands (ev):

    -5.6700   4.2991   5.6089   5.6089

          k = 0.6250-0.1250-0.1250 (   775 PWs)   bands (ev):

    -4.1238   0.9802   3.2953   3.7438

          k = 0.6250 0.3750-0.1250 (   775 PWs)   bands (ev):

    -3.7128   0.1192   2.6574   4.0164

          k = 0.6250 0.1250 0.1250 (   775 PWs)   bands (ev):

    -4.1238   0.9802   3.2953   3.7438

          k = 0.6250 0.6250 0.1250 (   773 PWs)   bands (ev):

    -3.0334  -0.6608   2.0109   4.0535

          k =-0.8750 0.1250-0.6250 (   762 PWs)   bands (ev):

    -2.5003  -0.9679   1.9566   3.0226

          k =-0.8750 0.6250-0.6250 (   781 PWs)   bands (ev):

    -4.6522   1.3221   3.6388   5.1311

          k =-0.1250 0.6250-0.8750 (   762 PWs)   bands (ev):

    -2.5003  -0.9679   1.9566   3.0226

          k =-0.1250 1.1250-0.8750 (   766 PWs)   bands (ev):

    -2.6644  -0.8726   2.5600   3.2805

          k =-0.1250 0.8750-0.6250 (   762 PWs)   bands (ev):

    -2.5003  -0.9679   1.9566   3.0226

          k =-0.1250 1.3750-0.6250 (   773 PWs)   bands (ev):

    -3.0334  -0.6608   2.0109   4.0535

          k =-0.1250-0.8750-0.6250 (   762 PWs)   bands (ev):

    -2.5003  -0.9679   1.9566   3.0226

          k =-0.1250-0.3750-0.6250 (   775 PWs)   bands (ev):

    -3.7128   0.1192   2.6574   4.0164

          k = 0.8750-0.6250 0.1250 (   762 PWs)   bands (ev):

    -2.5003  -0.9679   1.9566   3.0226

          k = 0.8750-0.1250 0.1250 (   766 PWs)   bands (ev):

    -2.6644  -0.8726   2.5600   3.2805

          k =-0.6250-0.1250-0.3750 (   775 PWs)   bands (ev):

    -3.7128   0.1192   2.6574   4.0164

          k =-0.6250 0.3750-0.3750 (   773 PWs)   bands (ev):

    -3.5252  -0.7358   3.6553   4.3673

          k = 0.1250 0.3750-0.6250 (   775 PWs)   bands (ev):

    -3.7128   0.1192   2.6574   4.0164

          k = 0.1250 0.8750-0.6250 (   762 PWs)   bands (ev):

    -2.5003  -0.9679   1.9566   3.0226

          k = 0.1250 0.6250-0.3750 (   775 PWs)   bands (ev):

    -3.7128   0.1192   2.6574   4.0164

          k = 0.1250 1.1250-0.3750 (   762 PWs)   bands (ev):

    -2.5003  -0.9679   1.9566   3.0226

          k = 0.1250-0.6250-0.3750 (   775 PWs)   bands (ev):

    -3.7128   0.1192   2.6574   4.0164

          k = 0.1250-0.1250-0.3750 (   781 PWs)   bands (ev):

    -5.1465   2.6873   4.6107   4.6694

          k = 0.6250-0.3750-0.1250 (   775 PWs)   bands (ev):

    -3.7128   0.1192   2.6574   4.0164

          k = 0.6250 0.1250-0.1250 (   775 PWs)   bands (ev):

    -4.1238   0.9802   3.2953   3.7438

          k =-0.1250 0.8750 0.1250 (   766 PWs)   bands (ev):

    -2.6644  -0.8726   2.5600   3.2805

          k =-0.1250 1.3750 0.1250 (   775 PWs)   bands (ev):

    -4.1238   0.9802   3.2953   3.7438

          k =-0.8750-0.1250-0.1250 (   766 PWs)   bands (ev):

    -2.6644  -0.8726   2.5600   3.2805

          k =-0.8750 0.3750-0.1250 (   762 PWs)   bands (ev):

    -2.5003  -0.9679   1.9566   3.0226

          k =-0.8750 0.1250 0.1250 (   766 PWs)   bands (ev):

    -2.6644  -0.8726   2.5600   3.2805

          k =-0.8750 0.6250 0.1250 (   762 PWs)   bands (ev):

    -2.5003  -0.9679   1.9566   3.0226

          k =-0.3750-0.3750 0.3750 (   769 PWs)   bands (ev):

    -4.2238   0.0462   4.8269   4.8269

          k =-0.3750 0.1250 0.3750 (   781 PWs)   bands (ev):

    -4.6522   1.3221   3.6388   5.1311

          k =-1.1250 0.3750-0.3750 (   773 PWs)   bands (ev):

    -3.0334  -0.6608   2.0109   4.0535

          k =-1.1250 0.8750-0.3750 (   775 PWs)   bands (ev):

    -4.1238   0.9802   3.2953   3.7438

          k =-0.3750 1.1250-0.3750 (   773 PWs)   bands (ev):

    -3.0334  -0.6608   2.0109   4.0535

          k =-0.3750 1.6250-0.3750 (   769 PWs)   bands (ev):

    -4.2238   0.0462   4.8269   4.8269

          k =-0.3750-1.1250-0.3750 (   773 PWs)   bands (ev):

    -3.0334  -0.6608   2.0109   4.0535

          k =-0.3750-0.6250-0.3750 (   773 PWs)   bands (ev):

    -3.5252  -0.7358   3.6553   4.3673

     highest occupied level (ev):     5.6089

     Writing output data file silicon.10.364.save

                                                                                

     bravais-lattice index     =            2
     lattice parameter (alat)  =      10.3640  a.u.
     unit-cell volume          =     278.3058 (a.u.)^3
     number of atoms/cell      =            2
     number of atomic types    =            1
     kinetic-energy cut-off    =      30.0000  Ry
     charge density cut-off    =     240.0000  Ry
     convergence threshold     =      1.0E-12
     beta                      =       0.7000
     number of iterations used =            4
     Exchange-correlation      = SLA  PW   PBE  PBE ( 1  4  3  4 0 0)


     celldm(1)=   10.36400  celldm(2)=    0.00000  celldm(3)=    0.00000
     celldm(4)=    0.00000  celldm(5)=    0.00000  celldm(6)=    0.00000

     crystal axes: (cart. coord. in units of alat)
               a(1) = ( -0.5000  0.0000  0.5000 )  
               a(2) = (  0.0000  0.5000  0.5000 )  
               a(3) = ( -0.5000  0.5000  0.0000 )  

     reciprocal axes: (cart. coord. in units 2 pi/alat)
               b(1) = ( -1.0000 -1.0000  1.0000 )  
               b(2) = (  1.0000  1.0000  1.0000 )  
               b(3) = ( -1.0000  1.0000 -1.0000 )  


     Atoms inside the unit cell: 

     Cartesian axes

     site n.  atom      mass           positions (alat units)
        1     Si  28.0860   tau(    1) = (    0.00000    0.00000    0.00000  )
        2     Si  28.0860   tau(    2) = (    0.25000    0.25000    0.25000  )

     Computing dynamical matrix for 
                    q = (   0.0000000   0.5000000   0.0000000 )

      8 Sym.Ops. (no q -> -q+G )


     G cutoff =  652.9897  (   4369 G-vectors)     FFT grid: ( 40, 40, 40)
     G cutoff =  326.4948  (   1545 G-vectors)  smooth grid: ( 25, 25, 25)
     number of k points=    80

     PseudoPot. # 1 for Si read from file:
     /home/s1333534/quantum_espresso/qe-6.1/pseudo/si_pbe_v1.uspp.F.UPF.txt
     MD5 check sum: a056efeee980c13900f22a371efd63c1
     Pseudo is Ultrasoft + core correction, Zval =  4.0
     Generated by new atomic code, or converted to UPF format
     Using radial grid of  899 points,  6 beta functions with: 
                l(1) =   0
                l(2) =   0
                l(3) =   1
                l(4) =   1
                l(5) =   2
                l(6) =   2
     Q(r) pseudized with  8 coefficients,  rinner =    0.900   0.900   0.900
                                                       0.900   0.900

     Mode symmetry, C_4v (4mm)  point group:


     Atomic displacements:
     There are   4 irreducible representations

     Representation     1      1 modes -A_1  G_1 D_1  To be done

     Representation     2      1 modes -B_2  G_4 D_2'  To be done

     Representation     3      2 modes -E    G_5 D_5  To be done

     Representation     4      2 modes -E    G_5 D_5  To be done



     Alpha used in Ewald sum =   2.5000
     PHONON       :    40.42s CPU        54.02s WALL



     Representation #  1 mode #   1

     Self-consistent Calculation

      iter #   1 total cpu time :    54.4 secs   av.it.:   6.2
      thresh= 1.000E-02 alpha_mix =  0.700 |ddv_scf|^2 =  3.708E-04

      iter #   2 total cpu time :    55.0 secs   av.it.:   9.5
      thresh= 1.926E-03 alpha_mix =  0.700 |ddv_scf|^2 =  4.944E-03

      iter #   3 total cpu time :    55.5 secs   av.it.:   7.5
      thresh= 7.032E-03 alpha_mix =  0.700 |ddv_scf|^2 =  7.253E-09

      iter #   4 total cpu time :    56.0 secs   av.it.:  10.3
      thresh= 8.516E-06 alpha_mix =  0.700 |ddv_scf|^2 =  7.491E-10

      iter #   5 total cpu time :    56.5 secs   av.it.:   9.8
      thresh= 2.737E-06 alpha_mix =  0.700 |ddv_scf|^2 =  7.984E-11

      iter #   6 total cpu time :    57.0 secs   av.it.:   9.6
      thresh= 8.935E-07 alpha_mix =  0.700 |ddv_scf|^2 =  2.205E-13

     End of self-consistent calculation

     Convergence has been achieved 


     Representation #  2 mode #   2

     Self-consistent Calculation

      iter #   1 total cpu time :    57.4 secs   av.it.:   5.1
      thresh= 1.000E-02 alpha_mix =  0.700 |ddv_scf|^2 =  5.889E-07

      iter #   2 total cpu time :    58.0 secs   av.it.:  10.6
      thresh= 7.674E-05 alpha_mix =  0.700 |ddv_scf|^2 =  1.639E-07

      iter #   3 total cpu time :    58.5 secs   av.it.:  10.2
      thresh= 4.049E-05 alpha_mix =  0.700 |ddv_scf|^2 =  1.682E-09

      iter #   4 total cpu time :    59.0 secs   av.it.:  10.2
      thresh= 4.101E-06 alpha_mix =  0.700 |ddv_scf|^2 =  6.738E-11

      iter #   5 total cpu time :    59.5 secs   av.it.:  10.5
      thresh= 8.209E-07 alpha_mix =  0.700 |ddv_scf|^2 =  3.878E-13

     End of self-consistent calculation

     Convergence has been achieved 


     Representation #  3 modes #   3  4

     Self-consistent Calculation

      iter #   1 total cpu time :    60.3 secs   av.it.:   5.2
      thresh= 1.000E-02 alpha_mix =  0.700 |ddv_scf|^2 =  1.042E-07

      iter #   2 total cpu time :    61.3 secs   av.it.:  11.7
      thresh= 3.228E-05 alpha_mix =  0.700 |ddv_scf|^2 =  1.438E-08

      iter #   3 total cpu time :    62.4 secs   av.it.:  11.3
      thresh= 1.199E-05 alpha_mix =  0.700 |ddv_scf|^2 =  2.421E-10

      iter #   4 total cpu time :    63.3 secs   av.it.:  10.8
      thresh= 1.556E-06 alpha_mix =  0.700 |ddv_scf|^2 =  5.753E-13

     End of self-consistent calculation

     Convergence has been achieved 


     Representation #  4 modes #   5  6

     Self-consistent Calculation

      iter #   1 total cpu time :    64.2 secs   av.it.:   5.3
      thresh= 1.000E-02 alpha_mix =  0.700 |ddv_scf|^2 =  9.552E-08

      iter #   2 total cpu time :    65.2 secs   av.it.:  11.6
      thresh= 3.091E-05 alpha_mix =  0.700 |ddv_scf|^2 =  1.284E-08

      iter #   3 total cpu time :    66.2 secs   av.it.:  11.4
      thresh= 1.133E-05 alpha_mix =  0.700 |ddv_scf|^2 =  2.474E-10

      iter #   4 total cpu time :    67.1 secs   av.it.:  11.1
      thresh= 1.573E-06 alpha_mix =  0.700 |ddv_scf|^2 =  6.146E-13

     End of self-consistent calculation

     Convergence has been achieved 

     Number of q in the star =    6
     List of q in the star:
          1   0.000000000   0.500000000   0.000000000
          2   0.000000000  -0.500000000   0.000000000
          3   0.500000000   0.000000000   0.000000000
          4   0.000000000   0.000000000   0.500000000
          5   0.000000000   0.000000000  -0.500000000
          6  -0.500000000   0.000000000   0.000000000

     Diagonalizing the dynamical matrix

     q = (    0.000000000   0.500000000   0.000000000 ) 

 **************************************************************************
     freq (    1) =       3.789811 [THz] =     126.414473 [cm-1]
     freq (    2) =       3.789811 [THz] =     126.414473 [cm-1]
     freq (    3) =       6.993401 [THz] =     233.274748 [cm-1]
     freq (    4) =      13.666535 [THz] =     455.866555 [cm-1]
     freq (    5) =      13.666535 [THz] =     455.866555 [cm-1]
     freq (    6) =      14.331600 [THz] =     478.050721 [cm-1]
 **************************************************************************

     Mode symmetry, C_4v (4mm)  point group:

     freq (  1 -  2) =        126.4  [cm-1]   --> E    G_5 D_5       
     freq (  3 -  3) =        233.3  [cm-1]   --> A_1  G_1 D_1       
     freq (  4 -  5) =        455.9  [cm-1]   --> E    G_5 D_5       
     freq (  6 -  6) =        478.1  [cm-1]   --> B_2  G_4 D_2'      

     Calculation of q =    0.7500000  -0.2500000   0.7500000

   Info: using nr1, nr2, nr3 values from input

   Info: using nr1, nr2, nr3 values from input

     Parallelization info
     --------------------
     sticks:   dense  smooth     PW     G-vecs:    dense   smooth      PW
     Min         222     109     40                 4369     1545     362
     Max         223     110     41                 4370     1546     366
     Sum         889     439    163                17477     6183    1459



     bravais-lattice index     =            2
     lattice parameter (alat)  =      10.3640  a.u.
     unit-cell volume          =     278.3058 (a.u.)^3
     number of atoms/cell      =            2
     number of atomic types    =            1
     number of electrons       =         8.00
     number of Kohn-Sham states=            4
     kinetic-energy cutoff     =      30.0000  Ry
     charge density cutoff     =     240.0000  Ry
     Exchange-correlation      = SLA  PW   PBE  PBE ( 1  4  3  4 0 0)

     celldm(1)=  10.364000  celldm(2)=   0.000000  celldm(3)=   0.000000
     celldm(4)=   0.000000  celldm(5)=   0.000000  celldm(6)=   0.000000

     crystal axes: (cart. coord. in units of alat)
               a(1) = (  -0.500000   0.000000   0.500000 )  
               a(2) = (   0.000000   0.500000   0.500000 )  
               a(3) = (  -0.500000   0.500000   0.000000 )  

     reciprocal axes: (cart. coord. in units 2 pi/alat)
               b(1) = ( -1.000000 -1.000000  1.000000 )  
               b(2) = (  1.000000  1.000000  1.000000 )  
               b(3) = ( -1.000000  1.000000 -1.000000 )  


     PseudoPot. # 1 for Si read from file:
     /home/s1333534/quantum_espresso/qe-6.1/pseudo/si_pbe_v1.uspp.F.UPF.txt
     MD5 check sum: a056efeee980c13900f22a371efd63c1
     Pseudo is Ultrasoft + core correction, Zval =  4.0
     Generated by new atomic code, or converted to UPF format
     Using radial grid of  899 points,  6 beta functions with: 
                l(1) =   0
                l(2) =   0
                l(3) =   1
                l(4) =   1
                l(5) =   2
                l(6) =   2
     Q(r) pseudized with  8 coefficients,  rinner =    0.900   0.900   0.900
                                                       0.900   0.900

     atomic species   valence    mass     pseudopotential
        Si             4.00    28.08600     Si( 1.00)

     48 Sym. Ops., with inversion, found



   Cartesian axes

     site n.     atom                  positions (alat units)
         1           Si  tau(   1) = (   0.0000000   0.0000000   0.0000000  )
         2           Si  tau(   2) = (   0.2500000   0.2500000   0.2500000  )

     number of k points=   288

     Number of k-points >= 100: set verbosity='high' to print them.

     Dense  grid:    17477 G-vectors     FFT dimensions: (  40,  40,  40)

     Smooth grid:     6183 G-vectors     FFT dimensions: (  25,  25,  25)

     Estimated max dynamical RAM per process >       1.79MB

     Estimated total allocated dynamical RAM >       7.17MB

     The potential is recalculated from file :
     ./_ph0/silicon.10.364.save/charge-density.dat

     Starting wfc are    8 atomic wfcs

     Band Structure Calculation
     Davidson diagonalization with overlap

     ethr =  1.25E-10,  avg # of iterations = 12.1

     total cpu time spent up to now is        7.0 secs

     End of band structure calculation

     Number of k-points >= 100: set verbosity='high' to print the bands.

     highest occupied level (ev):     5.6089

     Writing output data file silicon.10.364.save

                                                                                

     bravais-lattice index     =            2
     lattice parameter (alat)  =      10.3640  a.u.
     unit-cell volume          =     278.3058 (a.u.)^3
     number of atoms/cell      =            2
     number of atomic types    =            1
     kinetic-energy cut-off    =      30.0000  Ry
     charge density cut-off    =     240.0000  Ry
     convergence threshold     =      1.0E-12
     beta                      =       0.7000
     number of iterations used =            4
     Exchange-correlation      = SLA  PW   PBE  PBE ( 1  4  3  4 0 0)


     celldm(1)=   10.36400  celldm(2)=    0.00000  celldm(3)=    0.00000
     celldm(4)=    0.00000  celldm(5)=    0.00000  celldm(6)=    0.00000

     crystal axes: (cart. coord. in units of alat)
               a(1) = ( -0.5000  0.0000  0.5000 )  
               a(2) = (  0.0000  0.5000  0.5000 )  
               a(3) = ( -0.5000  0.5000  0.0000 )  

     reciprocal axes: (cart. coord. in units 2 pi/alat)
               b(1) = ( -1.0000 -1.0000  1.0000 )  
               b(2) = (  1.0000  1.0000  1.0000 )  
               b(3) = ( -1.0000  1.0000 -1.0000 )  


     Atoms inside the unit cell: 

     Cartesian axes

     site n.  atom      mass           positions (alat units)
        1     Si  28.0860   tau(    1) = (    0.00000    0.00000    0.00000  )
        2     Si  28.0860   tau(    2) = (    0.25000    0.25000    0.25000  )

     Computing dynamical matrix for 
                    q = (   0.7500000  -0.2500000   0.7500000 )

      2 Sym.Ops. (no q -> -q+G )


     G cutoff =  652.9897  (   4369 G-vectors)     FFT grid: ( 40, 40, 40)
     G cutoff =  326.4948  (   1546 G-vectors)  smooth grid: ( 25, 25, 25)
     number of k points=   288

     PseudoPot. # 1 for Si read from file:
     /home/s1333534/quantum_espresso/qe-6.1/pseudo/si_pbe_v1.uspp.F.UPF.txt
     MD5 check sum: a056efeee980c13900f22a371efd63c1
     Pseudo is Ultrasoft + core correction, Zval =  4.0
     Generated by new atomic code, or converted to UPF format
     Using radial grid of  899 points,  6 beta functions with: 
                l(1) =   0
                l(2) =   0
                l(3) =   1
                l(4) =   1
                l(5) =   2
                l(6) =   2
     Q(r) pseudized with  8 coefficients,  rinner =    0.900   0.900   0.900
                                                       0.900   0.900

     Mode symmetry, C_s (m)     point group:


     Atomic displacements:
     There are   6 irreducible representations

     Representation     1      1 modes -A'  To be done

     Representation     2      1 modes -A'  To be done

     Representation     3      1 modes -A'  To be done

     Representation     4      1 modes -A'  To be done

     Representation     5      1 modes -A''  To be done

     Representation     6      1 modes -A''  To be done



     Alpha used in Ewald sum =   2.5000
     PHONON       :  0m55.30s CPU     1m12.47s WALL



     Representation #  1 mode #   1

     Self-consistent Calculation

      iter #   1 total cpu time :    73.4 secs   av.it.:   5.6
      thresh= 1.000E-02 alpha_mix =  0.700 |ddv_scf|^2 =  7.571E-06

      iter #   2 total cpu time :    74.8 secs   av.it.:  10.7
      thresh= 2.751E-04 alpha_mix =  0.700 |ddv_scf|^2 =  2.034E-05

      iter #   3 total cpu time :    76.1 secs   av.it.:   9.4
      thresh= 4.510E-04 alpha_mix =  0.700 |ddv_scf|^2 =  1.361E-07

      iter #   4 total cpu time :    77.4 secs   av.it.:  10.1
      thresh= 3.689E-05 alpha_mix =  0.700 |ddv_scf|^2 =  2.746E-09

      iter #   5 total cpu time :    78.7 secs   av.it.:  10.6
      thresh= 5.240E-06 alpha_mix =  0.700 |ddv_scf|^2 =  4.657E-10

      iter #   6 total cpu time :    80.1 secs   av.it.:  10.6
      thresh= 2.158E-06 alpha_mix =  0.700 |ddv_scf|^2 =  7.434E-12

      iter #   7 total cpu time :    81.4 secs   av.it.:  10.8
      thresh= 2.727E-07 alpha_mix =  0.700 |ddv_scf|^2 =  2.862E-13

     End of self-consistent calculation

     Convergence has been achieved 


     Representation #  2 mode #   2

     Self-consistent Calculation

      iter #   1 total cpu time :    82.5 secs   av.it.:   5.8
      thresh= 1.000E-02 alpha_mix =  0.700 |ddv_scf|^2 =  1.353E-05

      iter #   2 total cpu time :    83.9 secs   av.it.:  10.6
      thresh= 3.679E-04 alpha_mix =  0.700 |ddv_scf|^2 =  3.938E-05

      iter #   3 total cpu time :    85.1 secs   av.it.:   9.2
      thresh= 6.276E-04 alpha_mix =  0.700 |ddv_scf|^2 =  9.302E-08

      iter #   4 total cpu time :    86.5 secs   av.it.:  10.4
      thresh= 3.050E-05 alpha_mix =  0.700 |ddv_scf|^2 =  3.106E-09

      iter #   5 total cpu time :    87.8 secs   av.it.:  10.6
      thresh= 5.573E-06 alpha_mix =  0.700 |ddv_scf|^2 =  6.317E-10

      iter #   6 total cpu time :    89.1 secs   av.it.:  10.5
      thresh= 2.513E-06 alpha_mix =  0.700 |ddv_scf|^2 =  6.640E-12

      iter #   7 total cpu time :    90.5 secs   av.it.:  10.8
      thresh= 2.577E-07 alpha_mix =  0.700 |ddv_scf|^2 =  2.395E-13

     End of self-consistent calculation

     Convergence has been achieved 


     Representation #  3 mode #   3

     Self-consistent Calculation

      iter #   1 total cpu time :    91.5 secs   av.it.:   5.7
      thresh= 1.000E-02 alpha_mix =  0.700 |ddv_scf|^2 =  1.060E-05

      iter #   2 total cpu time :    92.9 secs   av.it.:  10.7
      thresh= 3.256E-04 alpha_mix =  0.700 |ddv_scf|^2 =  2.895E-05

      iter #   3 total cpu time :    94.1 secs   av.it.:   9.2
      thresh= 5.380E-04 alpha_mix =  0.700 |ddv_scf|^2 =  1.619E-07

      iter #   4 total cpu time :    95.5 secs   av.it.:  10.0
      thresh= 4.024E-05 alpha_mix =  0.700 |ddv_scf|^2 =  3.165E-09

      iter #   5 total cpu time :    96.8 secs   av.it.:  10.7
      thresh= 5.625E-06 alpha_mix =  0.700 |ddv_scf|^2 =  6.202E-10

      iter #   6 total cpu time :    98.2 secs   av.it.:  10.5
      thresh= 2.490E-06 alpha_mix =  0.700 |ddv_scf|^2 =  4.622E-12

      iter #   7 total cpu time :    99.5 secs   av.it.:  10.7
      thresh= 2.150E-07 alpha_mix =  0.700 |ddv_scf|^2 =  1.364E-13

     End of self-consistent calculation

     Convergence has been achieved 


     Representation #  4 mode #   4

     Self-consistent Calculation

      iter #   1 total cpu time :   100.6 secs   av.it.:   5.5
      thresh= 1.000E-02 alpha_mix =  0.700 |ddv_scf|^2 =  4.632E-06

      iter #   2 total cpu time :   102.0 secs   av.it.:  10.9
      thresh= 2.152E-04 alpha_mix =  0.700 |ddv_scf|^2 =  9.878E-06

      iter #   3 total cpu time :   103.3 secs   av.it.:   9.7
      thresh= 3.143E-04 alpha_mix =  0.700 |ddv_scf|^2 =  2.137E-07

      iter #   4 total cpu time :   104.6 secs   av.it.:  10.0
      thresh= 4.622E-05 alpha_mix =  0.700 |ddv_scf|^2 =  2.712E-09

      iter #   5 total cpu time :   106.1 secs   av.it.:  10.7
      thresh= 5.208E-06 alpha_mix =  0.700 |ddv_scf|^2 =  5.070E-10

      iter #   6 total cpu time :   107.7 secs   av.it.:  10.5
      thresh= 2.252E-06 alpha_mix =  0.700 |ddv_scf|^2 =  3.117E-12

      iter #   7 total cpu time :   109.0 secs   av.it.:  10.8
      thresh= 1.765E-07 alpha_mix =  0.700 |ddv_scf|^2 =  1.454E-13

     End of self-consistent calculation

     Convergence has been achieved 


     Representation #  5 mode #   5

     Self-consistent Calculation

      iter #   1 total cpu time :   110.1 secs   av.it.:   5.2
      thresh= 1.000E-02 alpha_mix =  0.700 |ddv_scf|^2 =  4.815E-07

      iter #   2 total cpu time :   111.4 secs   av.it.:  10.4
      thresh= 6.939E-05 alpha_mix =  0.700 |ddv_scf|^2 =  7.866E-08

      iter #   3 total cpu time :   112.8 secs   av.it.:  10.2
      thresh= 2.805E-05 alpha_mix =  0.700 |ddv_scf|^2 =  1.048E-09

      iter #   4 total cpu time :   114.1 secs   av.it.:   9.8
      thresh= 3.237E-06 alpha_mix =  0.700 |ddv_scf|^2 =  2.475E-12

      iter #   5 total cpu time :   115.3 secs   av.it.:  10.3
      thresh= 1.573E-07 alpha_mix =  0.700 |ddv_scf|^2 =  7.031E-14

     End of self-consistent calculation

     Convergence has been achieved 


     Representation #  6 mode #   6

     Self-consistent Calculation

      iter #   1 total cpu time :   116.4 secs   av.it.:   5.2
      thresh= 1.000E-02 alpha_mix =  0.700 |ddv_scf|^2 =  4.815E-07

      iter #   2 total cpu time :   117.8 secs   av.it.:  10.4
[...]
        k(   59) = (  -0.8750000   0.1250000  -0.1250000), wk =   0.0625000
        k(   60) = (  -1.3750000  -0.8750000  -0.1250000), wk =   0.0000000
        k(   61) = (  -1.1250000   0.3750000  -0.3750000), wk =   0.0625000
        k(   62) = (  -1.6250000  -0.6250000  -0.3750000), wk =   0.0000000
        k(   63) = (  -0.3750000   0.3750000   1.1250000), wk =   0.0625000
        k(   64) = (  -0.8750000  -0.6250000   1.1250000), wk =   0.0000000

     Dense  grid:    17477 G-vectors     FFT dimensions: (  40,  40,  40)

     Smooth grid:     6183 G-vectors     FFT dimensions: (  25,  25,  25)

     Estimated max dynamical RAM per process >       1.79MB

     Estimated total allocated dynamical RAM >       7.17MB

     The potential is recalculated from file :
     ./_ph0/silicon.10.364.save/charge-density.dat

     Starting wfc are    8 atomic wfcs

     Band Structure Calculation
     Davidson diagonalization with overlap

     ethr =  1.25E-10,  avg # of iterations = 12.1

     total cpu time spent up to now is       10.9 secs

     End of band structure calculation

          k =-0.1250 0.1250 0.1250 (   779 PWs)   bands (ev):

    -5.6700   4.2991   5.6089   5.6089

          k =-0.6250-0.8750 0.1250 (   762 PWs)   bands (ev):

    -2.5003  -0.9679   1.9566   3.0226

          k =-0.3750 0.3750-0.1250 (   781 PWs)   bands (ev):

    -4.6522   1.3221   3.6388   5.1311

          k =-0.8750-0.6250-0.1250 (   762 PWs)   bands (ev):

    -2.5003  -0.9679   1.9566   3.0226

          k = 0.3750-0.3750 0.6250 (   773 PWs)   bands (ev):

    -3.5252  -0.7358   3.6553   4.3673

          k =-0.1250-1.3750 0.6250 (   773 PWs)   bands (ev):

    -3.0334  -0.6608   2.0109   4.0535

          k = 0.1250-0.1250 0.3750 (   781 PWs)   bands (ev):

    -5.1465   2.6873   4.6107   4.6694

          k =-0.3750-1.1250 0.3750 (   773 PWs)   bands (ev):

    -3.0334  -0.6608   2.0109   4.0535

          k =-0.1250 0.6250 0.1250 (   775 PWs)   bands (ev):

    -4.1238   0.9802   3.2953   3.7438

          k =-0.6250-0.3750 0.1250 (   775 PWs)   bands (ev):

    -3.7128   0.1192   2.6574   4.0164

          k = 0.6250-0.1250 0.8750 (   762 PWs)   bands (ev):

    -2.5003  -0.9679   1.9566   3.0226

          k = 0.1250-1.1250 0.8750 (   766 PWs)   bands (ev):

    -2.6644  -0.8726   2.5600   3.2805

          k = 0.3750 0.1250 0.6250 (   775 PWs)   bands (ev):

    -3.7128   0.1192   2.6574   4.0164

          k =-0.1250-0.8750 0.6250 (   762 PWs)   bands (ev):

    -2.5003  -0.9679   1.9566   3.0226

          k =-0.1250-0.8750 0.1250 (   766 PWs)   bands (ev):

    -2.6644  -0.8726   2.5600   3.2805

          k =-0.6250-1.8750 0.1250 (   775 PWs)   bands (ev):

    -4.1238   0.9802   3.2953   3.7438

          k =-0.3750 0.3750 0.3750 (   769 PWs)   bands (ev):

    -4.2238   0.0462   4.8269   4.8269

          k =-0.8750-0.6250 0.3750 (   775 PWs)   bands (ev):

    -3.7128   0.1192   2.6574   4.0164

          k = 0.3750-0.3750 1.1250 (   773 PWs)   bands (ev):

    -3.0334  -0.6608   2.0109   4.0535

          k =-0.1250-1.3750 1.1250 (   762 PWs)   bands (ev):

    -2.5003  -0.9679   1.9566   3.0226

          k = 0.1250-0.3750 0.3750 (   781 PWs)   bands (ev):

    -4.6522   1.3221   3.6388   5.1311

          k =-0.3750-1.3750 0.3750 (   773 PWs)   bands (ev):

    -3.5252  -0.7358   3.6553   4.3673

          k = 0.3750-0.3750-0.1250 (   781 PWs)   bands (ev):

    -4.6522   1.3221   3.6388   5.1311

          k =-0.1250-1.3750-0.1250 (   775 PWs)   bands (ev):

    -4.1238   0.9802   3.2953   3.7438

          k =-0.6250 0.3750-0.3750 (   773 PWs)   bands (ev):

    -3.5252  -0.7358   3.6553   4.3673

          k =-1.1250-0.6250-0.3750 (   775 PWs)   bands (ev):

    -3.7128   0.1192   2.6574   4.0164

          k =-0.3750 0.3750 0.6250 (   773 PWs)   bands (ev):

    -3.5252  -0.7358   3.6553   4.3673

          k =-0.8750-0.6250 0.6250 (   781 PWs)   bands (ev):

    -4.6522   1.3221   3.6388   5.1311

          k =-0.3750 0.1250-0.1250 (   781 PWs)   bands (ev):

    -5.1465   2.6873   4.6107   4.6694

          k =-0.8750-0.8750-0.1250 (   766 PWs)   bands (ev):

    -2.6644  -0.8726   2.5600   3.2805

          k =-0.1250 0.1250 0.3750 (   781 PWs)   bands (ev):

    -5.1465   2.6873   4.6107   4.6694

          k =-0.6250-0.8750 0.3750 (   775 PWs)   bands (ev):

    -3.7128   0.1192   2.6574   4.0164

          k = 0.1250 0.6250-0.1250 (   775 PWs)   bands (ev):

    -4.1238   0.9802   3.2953   3.7438

          k =-0.3750-0.3750-0.1250 (   781 PWs)   bands (ev):

    -4.6522   1.3221   3.6388   5.1311

          k = 0.6250 0.1250-0.1250 (   775 PWs)   bands (ev):

    -4.1238   0.9802   3.2953   3.7438

          k = 0.1250-0.8750-0.1250 (   766 PWs)   bands (ev):

    -2.6644  -0.8726   2.5600   3.2805

          k =-0.8750 0.1250-0.6250 (   762 PWs)   bands (ev):

    -2.5003  -0.9679   1.9566   3.0226

          k =-1.3750-0.8750-0.6250 (   781 PWs)   bands (ev):

    -4.6522   1.3221   3.6388   5.1311

          k = 0.8750-0.1250 0.6250 (   762 PWs)   bands (ev):

    -2.5003  -0.9679   1.9566   3.0226

          k = 0.3750-1.1250 0.6250 (   775 PWs)   bands (ev):

    -3.7128   0.1192   2.6574   4.0164

          k =-0.6250 0.1250 0.8750 (   762 PWs)   bands (ev):

    -2.5003  -0.9679   1.9566   3.0226

          k =-1.1250-0.8750 0.8750 (   779 PWs)   bands (ev):

    -5.6700   4.2991   5.6089   5.6089

          k =-0.1250 0.8750 0.6250 (   762 PWs)   bands (ev):

    -2.5003  -0.9679   1.9566   3.0226

          k =-0.6250-0.1250 0.6250 (   773 PWs)   bands (ev):

    -3.0334  -0.6608   2.0109   4.0535

          k = 0.1250 0.8750-0.6250 (   762 PWs)   bands (ev):

    -2.5003  -0.9679   1.9566   3.0226

          k =-0.3750-0.1250-0.6250 (   775 PWs)   bands (ev):

    -3.7128   0.1192   2.6574   4.0164

          k =-0.6250-0.1250-0.3750 (   775 PWs)   bands (ev):

    -3.7128   0.1192   2.6574   4.0164

          k =-1.1250-1.1250-0.3750 (   775 PWs)   bands (ev):

    -4.1238   0.9802   3.2953   3.7438

          k = 0.6250 0.1250 0.3750 (   775 PWs)   bands (ev):

    -3.7128   0.1192   2.6574   4.0164

          k = 0.1250-0.8750 0.3750 (   762 PWs)   bands (ev):

    -2.5003  -0.9679   1.9566   3.0226

          k =-0.3750-0.1250 0.6250 (   775 PWs)   bands (ev):

    -3.7128   0.1192   2.6574   4.0164

          k =-0.8750-1.1250 0.6250 (   781 PWs)   bands (ev):

    -5.1465   2.6873   4.6107   4.6694

          k = 0.1250 0.6250 0.3750 (   775 PWs)   bands (ev):

    -3.7128   0.1192   2.6574   4.0164

          k =-0.3750-0.3750 0.3750 (   769 PWs)   bands (ev):

    -4.2238   0.0462   4.8269   4.8269

          k =-0.1250 0.6250-0.3750 (   775 PWs)   bands (ev):

    -3.7128   0.1192   2.6574   4.0164

          k =-0.6250-0.3750-0.3750 (   773 PWs)   bands (ev):

    -3.5252  -0.7358   3.6553   4.3673

          k = 0.1250-0.8750-0.1250 (   766 PWs)   bands (ev):

    -2.6644  -0.8726   2.5600   3.2805

          k =-0.3750-1.8750-0.1250 (   781 PWs)   bands (ev):

    -5.1465   2.6873   4.6107   4.6694

          k =-0.8750 0.1250-0.1250 (   766 PWs)   bands (ev):

    -2.6644  -0.8726   2.5600   3.2805

          k =-1.3750-0.8750-0.1250 (   762 PWs)   bands (ev):

    -2.5003  -0.9679   1.9566   3.0226

          k =-1.1250 0.3750-0.3750 (   773 PWs)   bands (ev):

    -3.0334  -0.6608   2.0109   4.0535

          k =-1.6250-0.6250-0.3750 (   773 PWs)   bands (ev):

    -3.5252  -0.7358   3.6553   4.3673

          k =-0.3750 0.3750 1.1250 (   773 PWs)   bands (ev):

    -3.0334  -0.6608   2.0109   4.0535

          k =-0.8750-0.6250 1.1250 (   781 PWs)   bands (ev):

    -5.1465   2.6873   4.6107   4.6694

     highest occupied level (ev):     5.6089

     Writing output data file silicon.10.364.save

                                                                                

     bravais-lattice index     =            2
     lattice parameter (alat)  =      10.3640  a.u.
     unit-cell volume          =     278.3058 (a.u.)^3
     number of atoms/cell      =            2
     number of atomic types    =            1
     kinetic-energy cut-off    =      30.0000  Ry
     charge density cut-off    =     240.0000  Ry
     convergence threshold     =      1.0E-12
     beta                      =       0.7000
     number of iterations used =            4
     Exchange-correlation      = SLA  PW   PBE  PBE ( 1  4  3  4 0 0)


     celldm(1)=   10.36400  celldm(2)=    0.00000  celldm(3)=    0.00000
     celldm(4)=    0.00000  celldm(5)=    0.00000  celldm(6)=    0.00000

     crystal axes: (cart. coord. in units of alat)
               a(1) = ( -0.5000  0.0000  0.5000 )  
               a(2) = (  0.0000  0.5000  0.5000 )  
               a(3) = ( -0.5000  0.5000  0.0000 )  

     reciprocal axes: (cart. coord. in units 2 pi/alat)
               b(1) = ( -1.0000 -1.0000  1.0000 )  
               b(2) = (  1.0000  1.0000  1.0000 )  
               b(3) = ( -1.0000  1.0000 -1.0000 )  


     Atoms inside the unit cell: 

     Cartesian axes

     site n.  atom      mass           positions (alat units)
        1     Si  28.0860   tau(    1) = (    0.00000    0.00000    0.00000  )
        2     Si  28.0860   tau(    2) = (    0.25000    0.25000    0.25000  )

     Computing dynamical matrix for 
                    q = (  -0.5000000  -1.0000000   0.0000000 )

      8 Sym.Ops. (no q -> -q+G )


     G cutoff =  652.9897  (   4369 G-vectors)     FFT grid: ( 40, 40, 40)
     G cutoff =  326.4948  (   1546 G-vectors)  smooth grid: ( 25, 25, 25)
     number of k points=    64

     PseudoPot. # 1 for Si read from file:
     /home/s1333534/quantum_espresso/qe-6.1/pseudo/si_pbe_v1.uspp.F.UPF.txt
     MD5 check sum: a056efeee980c13900f22a371efd63c1
     Pseudo is Ultrasoft + core correction, Zval =  4.0
     Generated by new atomic code, or converted to UPF format
     Using radial grid of  899 points,  6 beta functions with: 
                l(1) =   0
                l(2) =   0
                l(3) =   1
                l(4) =   1
                l(5) =   2
                l(6) =   2
     Q(r) pseudized with  8 coefficients,  rinner =    0.900   0.900   0.900
                                                       0.900   0.900


     Atomic displacements:
     There are   3 irreducible representations

     Representation     1      2 modes -  To be done

     Representation     2      2 modes -  To be done

     Representation     3      2 modes -  To be done



     Alpha used in Ewald sum =   2.5000
     PHONON       :  2m 9.23s CPU     2m42.34s WALL



     Representation #  1 modes #   1  2

     Self-consistent Calculation

      iter #   1 total cpu time :   163.3 secs   av.it.:   5.7
      thresh= 1.000E-02 alpha_mix =  0.700 |ddv_scf|^2 =  7.812E-07

      iter #   2 total cpu time :   164.3 secs   av.it.:  11.8
      thresh= 8.838E-05 alpha_mix =  0.700 |ddv_scf|^2 =  4.414E-07

      iter #   3 total cpu time :   165.3 secs   av.it.:  11.3
      thresh= 6.644E-05 alpha_mix =  0.700 |ddv_scf|^2 =  4.273E-10

      iter #   4 total cpu time :   166.2 secs   av.it.:  11.1
      thresh= 2.067E-06 alpha_mix =  0.700 |ddv_scf|^2 =  1.928E-12

      iter #   5 total cpu time :   167.1 secs   av.it.:  11.3
      thresh= 1.388E-07 alpha_mix =  0.700 |ddv_scf|^2 =  5.064E-14

     End of self-consistent calculation

     Convergence has been achieved 


     Representation #  2 modes #   3  4

     Self-consistent Calculation

      iter #   1 total cpu time :   168.2 secs   av.it.:   5.6
      thresh= 1.000E-02 alpha_mix =  0.700 |ddv_scf|^2 =  1.216E-06

      iter #   2 total cpu time :   169.2 secs   av.it.:  11.8
      thresh= 1.103E-04 alpha_mix =  0.700 |ddv_scf|^2 =  1.665E-06

      iter #   3 total cpu time :   170.1 secs   av.it.:  11.0
      thresh= 1.290E-04 alpha_mix =  0.700 |ddv_scf|^2 =  5.110E-10

      iter #   4 total cpu time :   171.1 secs   av.it.:  11.1
      thresh= 2.261E-06 alpha_mix =  0.700 |ddv_scf|^2 =  8.395E-12

      iter #   5 total cpu time :   171.9 secs   av.it.:  11.3
      thresh= 2.897E-07 alpha_mix =  0.700 |ddv_scf|^2 =  1.343E-13

     End of self-consistent calculation

     Convergence has been achieved 


     Representation #  3 modes #   5  6

     Self-consistent Calculation

      iter #   1 total cpu time :   172.7 secs   av.it.:   5.3
      thresh= 1.000E-02 alpha_mix =  0.700 |ddv_scf|^2 =  3.175E-07

      iter #   2 total cpu time :   173.8 secs   av.it.:  11.9
      thresh= 5.635E-05 alpha_mix =  0.700 |ddv_scf|^2 =  1.852E-07

      iter #   3 total cpu time :   174.7 secs   av.it.:  11.2
      thresh= 4.304E-05 alpha_mix =  0.700 |ddv_scf|^2 =  3.697E-10

      iter #   4 total cpu time :   175.7 secs   av.it.:  11.1
      thresh= 1.923E-06 alpha_mix =  0.700 |ddv_scf|^2 =  4.433E-12

      iter #   5 total cpu time :   176.5 secs   av.it.:  11.2
      thresh= 2.106E-07 alpha_mix =  0.700 |ddv_scf|^2 =  6.041E-14

     End of self-consistent calculation

     Convergence has been achieved 

     Number of q in the star =    6
     List of q in the star:
          1  -0.500000000  -1.000000000   0.000000000
          2   0.000000000   1.000000000   0.500000000
          3   0.000000000  -1.000000000  -0.500000000
          4   0.500000000   1.000000000   0.000000000
          5  -1.000000000  -0.500000000   0.000000000
          6   0.000000000  -0.500000000  -1.000000000

     Diagonalizing the dynamical matrix

     q = (   -0.500000000  -1.000000000   0.000000000 ) 

 **************************************************************************
     freq (    1) =       6.043623 [THz] =     201.593560 [cm-1]
     freq (    2) =       6.043623 [THz] =     201.593560 [cm-1]
     freq (    3) =      10.218426 [THz] =     340.850002 [cm-1]
     freq (    4) =      10.218426 [THz] =     340.850002 [cm-1]
     freq (    5) =      13.379036 [THz] =     446.276613 [cm-1]
     freq (    6) =      13.379036 [THz] =     446.276613 [cm-1]
 **************************************************************************

     init_run     :      1.28s CPU      1.33s WALL (       7 calls)
     electrons    :      7.41s CPU      8.00s WALL (       7 calls)

     Called by init_run:
     wfcinit      :      0.00s CPU      0.03s WALL (       7 calls)
     potinit      :      0.10s CPU      0.11s WALL (       7 calls)

     Called by electrons:
     c_bands      :      7.41s CPU      7.99s WALL (       7 calls)
     v_of_rho     :      0.09s CPU      0.09s WALL (       8 calls)
     newd         :      0.13s CPU      0.13s WALL (       8 calls)

     Called by c_bands:
     init_us_2    :      1.63s CPU      1.57s WALL (   15896 calls)
     cegterg      :      6.22s CPU      6.68s WALL (     796 calls)

     Called by sum_band:

     Called by *egterg:
     h_psi        :     70.97s CPU     75.87s WALL (  154794 calls)
     s_psi        :      5.97s CPU      7.00s WALL (  311846 calls)
     g_psi        :      0.05s CPU      0.07s WALL (    9666 calls)
     cdiaghg      :      0.58s CPU      0.58s WALL (   10462 calls)

     Called by h_psi:
     h_psi:pot    :     70.53s CPU     75.36s WALL (  154794 calls)
     h_psi:calbec :      3.48s CPU      4.04s WALL (  154794 calls)
     vloc_psi     :     62.41s CPU     67.16s WALL (  154794 calls)
     add_vuspsi   :      4.28s CPU      3.70s WALL (  154794 calls)

     General routines
     calbec       :      8.12s CPU      8.59s WALL (  346154 calls)
     fft          :      2.01s CPU      2.08s WALL (    5233 calls)
     ffts         :      0.21s CPU      0.23s WALL (    3316 calls)
     fftw         :     64.14s CPU     67.93s WALL ( 1384950 calls)
     interpolate  :      0.28s CPU      0.30s WALL (     568 calls)
     davcio       :      0.34s CPU      1.12s WALL (   69130 calls)

     Parallel routines
     fft_scatter  :     15.64s CPU     20.05s WALL ( 1393499 calls)

     PHONON       :  2m19.30s CPU     2m57.19s WALL

     INITIALIZATION: 
     phq_setup    :      0.29s CPU      0.52s WALL (       8 calls)
     phq_init     :      6.94s CPU      7.22s WALL (       8 calls)

     phq_init     :      6.94s CPU      7.22s WALL (       8 calls)
     set_drhoc    :      1.86s CPU      1.86s WALL (      24 calls)
     init_vloc    :      0.03s CPU      0.03s WALL (       8 calls)
     init_us_1    :      0.97s CPU      0.98s WALL (       8 calls)
     newd         :      0.13s CPU      0.13s WALL (       8 calls)
     dvanqq       :      1.19s CPU      1.19s WALL (       8 calls)
     drho         :      2.64s CPU      2.72s WALL (       8 calls)

     DYNAMICAL MATRIX:
     dynmat0      :      1.77s CPU      1.87s WALL (       8 calls)
     phqscf       :    117.94s CPU    149.26s WALL (       8 calls)
     dynmatrix    :      0.01s CPU      0.18s WALL (       8 calls)

     phqscf       :    117.94s CPU    149.26s WALL (       8 calls)
     solve_linter :    117.04s CPU    146.47s WALL (      32 calls)
     drhodv       :      0.60s CPU      0.63s WALL (      32 calls)

     dynmat0      :      1.77s CPU      1.87s WALL (       8 calls)
     dynmat_us    :      0.39s CPU      0.40s WALL (       8 calls)
     d2ionq       :      0.04s CPU      0.04s WALL (       8 calls)
     dynmatcc     :      1.33s CPU      1.33s WALL (       8 calls)

     dynmat_us    :      0.39s CPU      0.40s WALL (       8 calls)
     addusdynmat  :      0.00s CPU      0.00s WALL (       8 calls)

     phqscf       :    117.94s CPU    149.26s WALL (       8 calls)
     solve_linter :    117.04s CPU    146.47s WALL (      32 calls)

     solve_linter :    117.04s CPU    146.47s WALL (      32 calls)
     dvqpsi_us    :      2.11s CPU      2.28s WALL (    2508 calls)
     ortho        :      0.87s CPU      1.00s WALL (   13486 calls)
     cgsolve      :     78.62s CPU     85.23s WALL (   13486 calls)
     incdrhoscf   :      6.31s CPU      6.91s WALL (   13486 calls)
     addusddens   :      7.18s CPU      7.23s WALL (     200 calls)
     vpsifft      :      4.47s CPU      4.88s WALL (   10858 calls)
     dv_of_drho   :      1.82s CPU      1.86s WALL (     254 calls)
     mix_pot      :      0.35s CPU     11.79s WALL (     173 calls)
     psymdvscf    :      6.12s CPU      6.18s WALL (     168 calls)
     newdq        :      7.89s CPU      7.92s WALL (     173 calls)
     adddvscf     :      0.46s CPU      0.44s WALL (   10978 calls)
     drhodvus     :      0.02s CPU      0.02s WALL (      32 calls)

     dvqpsi_us    :      2.11s CPU      2.28s WALL (    2508 calls)
     dvqpsi_us_on :      0.90s CPU      0.95s WALL (    2508 calls)

     cgsolve      :     78.62s CPU     85.23s WALL (   13486 calls)
     ch_psi       :     77.47s CPU     83.39s WALL (  143536 calls)

     ch_psi       :     77.47s CPU     83.39s WALL (  143536 calls)
     h_psi        :     70.97s CPU     75.87s WALL (  154794 calls)
     last         :      9.15s CPU      9.29s WALL (  143536 calls)

     h_psi        :     70.97s CPU     75.87s WALL (  154794 calls)
     add_vuspsi   :      4.28s CPU      3.70s WALL (  154794 calls)

     incdrhoscf   :      6.31s CPU      6.91s WALL (   13486 calls)
     addusdbec    :      0.48s CPU      0.52s WALL (   15934 calls)

     drhodvus     :      0.02s CPU      0.02s WALL (      32 calls)

      General routines
     calbec       :      8.12s CPU      8.59s WALL (  346154 calls)
     fft          :      2.01s CPU      2.08s WALL (    5233 calls)
     ffts         :      0.21s CPU      0.23s WALL (    3316 calls)
     fftw         :     64.14s CPU     67.93s WALL ( 1384950 calls)
     davcio       :      0.34s CPU      1.12s WALL (   69130 calls)
     write_rec    :      0.24s CPU     12.07s WALL (     205 calls)


     PHONON       :  2m19.30s CPU     2m57.19s WALL


   This run was terminated on:  15:41: 2  10Nov2017            

=------------------------------------------------------------------------------=
   JOB DONE.
=------------------------------------------------------------------------------=
