
     Program PWSCF v.6.1 (svn rev. 13369) starts on 10Nov2017 at 12:29:10 

     This program is part of the open-source Quantum ESPRESSO suite
     for quantum simulation of materials; please cite
         "P. Giannozzi et al., J. Phys.:Condens. Matter 21 395502 (2009);
          URL http://www.quantum-espresso.org", 
     in publications or presentations arising from this work. More details at
     http://www.quantum-espresso.org/quote

     Parallel version (MPI), running on     4 processors
     R & G space division:  proc/nbgrp/npool/nimage =       4
     Waiting for input...
     Reading input from standard input
     Message from routine read_cards :
     DEPRECATED: no units specified in ATOMIC_POSITIONS card
     Message from routine read_cards :
     ATOMIC_POSITIONS: units set to alat

     Current dimensions of program PWSCF are:
     Max number of different atomic species (ntypx) = 10
     Max number of k-points (npk) =  40000
     Max angular momentum in pseudopotentials (lmaxx) =  3

     Subspace diagonalization in iterative solution of the eigenvalue problem:
     a serial algorithm will be used


     Parallelization info
     --------------------
     sticks:   dense  smooth     PW     G-vecs:    dense   smooth      PW
     Min         333     165     52                 7969     2797     497
     Max         334     166     54                 7971     2799     498
     Sum        1333     661    211                31879    11191    1989



     bravais-lattice index     =            2
     lattice parameter (alat)  =      10.3330  a.u.
     unit-cell volume          =     275.8159 (a.u.)^3
     number of atoms/cell      =            2
     number of atomic types    =            1
     number of electrons       =         8.00
     number of Kohn-Sham states=            4
     kinetic-energy cutoff     =      45.0000  Ry
     charge density cutoff     =     360.0000  Ry
     convergence threshold     =      1.0E-08
     mixing beta               =       0.7000
     number of iterations used =            8  plain     mixing
     Exchange-correlation      = SLA  PW   PBE  PBE ( 1  4  3  4 0 0)

     celldm(1)=  10.333000  celldm(2)=   0.000000  celldm(3)=   0.000000
     celldm(4)=   0.000000  celldm(5)=   0.000000  celldm(6)=   0.000000

     crystal axes: (cart. coord. in units of alat)
               a(1) = (  -0.500000   0.000000   0.500000 )  
               a(2) = (   0.000000   0.500000   0.500000 )  
               a(3) = (  -0.500000   0.500000   0.000000 )  

     reciprocal axes: (cart. coord. in units 2 pi/alat)
               b(1) = ( -1.000000 -1.000000  1.000000 )  
               b(2) = (  1.000000  1.000000  1.000000 )  
               b(3) = ( -1.000000  1.000000 -1.000000 )  


     PseudoPot. # 1 for Si read from file:
     /home/max/quantum_espresso/qe-6.1/pseudo/si_pbe_v1.uspp.F.UPF.txt
     MD5 check sum: a056efeee980c13900f22a371efd63c1
     Pseudo is Ultrasoft + core correction, Zval =  4.0
     Generated by new atomic code, or converted to UPF format
     Using radial grid of  899 points,  6 beta functions with: 
                l(1) =   0
                l(2) =   0
                l(3) =   1
                l(4) =   1
                l(5) =   2
                l(6) =   2
     Q(r) pseudized with  8 coefficients,  rinner =    0.900   0.900   0.900
                                                       0.900   0.900

     atomic species   valence    mass     pseudopotential
        Si             4.00    28.08600     Si( 1.00)

     24 Sym. Ops. (no inversion) found
          (note: 24 additional sym.ops. were found but ignored
           their fractional translations are incommensurate with FFT grid)


   Cartesian axes

     site n.     atom                  positions (alat units)
         1           Si  tau(   1) = (   0.0000000   0.0000000   0.0000000  )
         2           Si  tau(   2) = (   0.2500000   0.2500000   0.2500000  )

     number of k points=    28
                       cart. coord. in units 2pi/alat
        k(    1) = (  -0.0833333   0.0833333   0.0833333), wk =   0.0185185
        k(    2) = (  -0.2500000   0.2500000  -0.0833333), wk =   0.0555556
        k(    3) = (  -0.4166667   0.4166667  -0.2500000), wk =   0.0555556
        k(    4) = (   0.4166667  -0.4166667   0.5833333), wk =   0.0555556
        k(    5) = (   0.2500000  -0.2500000   0.4166667), wk =   0.0555556
        k(    6) = (   0.0833333  -0.0833333   0.2500000), wk =   0.0555556
        k(    7) = (  -0.0833333   0.4166667   0.0833333), wk =   0.0555556
        k(    8) = (  -0.2500000   0.5833333  -0.0833333), wk =   0.1111111
        k(    9) = (   0.5833333  -0.2500000   0.7500000), wk =   0.1111111
        k(   10) = (   0.4166667  -0.0833333   0.5833333), wk =   0.1111111
        k(   11) = (   0.2500000   0.0833333   0.4166667), wk =   0.1111111
        k(   12) = (  -0.0833333   0.7500000   0.0833333), wk =   0.0555556
        k(   13) = (   0.7500000  -0.0833333   0.9166667), wk =   0.1111111
        k(   14) = (   0.5833333   0.0833333   0.7500000), wk =   0.1111111
        k(   15) = (   0.4166667   0.2500000   0.5833333), wk =   0.1111111
        k(   16) = (  -0.0833333  -0.9166667   0.0833333), wk =   0.0555556
        k(   17) = (  -0.2500000  -0.7500000  -0.0833333), wk =   0.1111111
        k(   18) = (  -0.0833333  -0.5833333   0.0833333), wk =   0.0555556
        k(   19) = (  -0.2500000   0.2500000   0.2500000), wk =   0.0185185
        k(   20) = (  -0.4166667   0.4166667   0.0833333), wk =   0.0555556
        k(   21) = (   0.4166667  -0.4166667   0.9166667), wk =   0.0555556
        k(   22) = (   0.2500000  -0.2500000   0.7500000), wk =   0.0555556
        k(   23) = (  -0.2500000   0.5833333   0.2500000), wk =   0.0555556
        k(   24) = (   0.5833333  -0.2500000   1.0833333), wk =   0.1111111
        k(   25) = (   0.4166667  -0.0833333   0.9166667), wk =   0.1111111
        k(   26) = (  -0.2500000  -1.0833333   0.2500000), wk =   0.0555556
        k(   27) = (  -0.4166667   0.4166667   0.4166667), wk =   0.0185185
        k(   28) = (   0.4166667  -0.4166667   1.2500000), wk =   0.0555556

     Dense  grid:    31879 G-vectors     FFT dimensions: (  45,  45,  45)

     Smooth grid:    11191 G-vectors     FFT dimensions: (  32,  32,  32)

     Estimated max dynamical RAM per process >       5.82MB

     Estimated total allocated dynamical RAM >      23.27MB

     Initial potential from superposition of free atoms

     starting charge    7.99866, renormalised to    8.00000
     Starting wfc are    8 randomized atomic wfcs

     total cpu time spent up to now is        1.8 secs

     per-process dynamical memory:    13.4 Mb

     Self-consistent Calculation

     iteration #  1     ecut=    45.00 Ry     beta=0.70
     Davidson diagonalization with overlap
     ethr =  1.00E-02,  avg # of iterations =  2.0

     Threshold (ethr) on eigenvalues was too large:
     Diagonalizing with lowered threshold

     Davidson diagonalization with overlap
     ethr =  6.78E-04,  avg # of iterations =  1.0

     total cpu time spent up to now is        3.7 secs

     total energy              =     -19.19134798 Ry
     Harris-Foulkes estimate   =     -19.20379695 Ry
     estimated scf accuracy    <       0.05361793 Ry

     iteration #  2     ecut=    45.00 Ry     beta=0.70
     Davidson diagonalization with overlap
     ethr =  6.70E-04,  avg # of iterations =  1.0

     total cpu time spent up to now is        4.6 secs

     total energy              =     -19.19309447 Ry
     Harris-Foulkes estimate   =     -19.19326749 Ry
     estimated scf accuracy    <       0.00245652 Ry

     iteration #  3     ecut=    45.00 Ry     beta=0.70
     Davidson diagonalization with overlap
     ethr =  3.07E-05,  avg # of iterations =  2.1

     total cpu time spent up to now is        5.9 secs

     total energy              =     -19.19342831 Ry
     Harris-Foulkes estimate   =     -19.19344076 Ry
     estimated scf accuracy    <       0.00004139 Ry

     iteration #  4     ecut=    45.00 Ry     beta=0.70
     Davidson diagonalization with overlap
     ethr =  5.17E-07,  avg # of iterations =  3.5

     total cpu time spent up to now is        7.0 secs

     total energy              =     -19.19346909 Ry
     Harris-Foulkes estimate   =     -19.19346989 Ry
     estimated scf accuracy    <       0.00000304 Ry

     iteration #  5     ecut=    45.00 Ry     beta=0.70
     Davidson diagonalization with overlap
     ethr =  3.80E-08,  avg # of iterations =  2.0

     total cpu time spent up to now is        8.1 secs

     End of self-consistent calculation

          k =-0.0833 0.0833 0.0833 (  1417 PWs)   bands (ev):

    -5.7495   5.1209   5.8390   5.8390

          k =-0.2500 0.2500-0.0833 (  1395 PWs)   bands (ev):

    -5.2800   3.0546   4.6221   5.6297

          k =-0.4167 0.4167-0.2500 (  1410 PWs)   bands (ev):

    -4.2057   0.3299   4.1593   5.0012

          k = 0.4167-0.4167 0.5833 (  1416 PWs)   bands (ev):

    -3.5225  -0.7938   4.2221   4.6269

          k = 0.2500-0.2500 0.4167 (  1402 PWs)   bands (ev):

    -4.6103   1.1641   4.6880   4.7144

          k = 0.0833-0.0833 0.2500 (  1412 PWs)   bands (ev):

    -5.5124   4.0548   5.2041   5.3822

          k =-0.0833 0.4167 0.0833 (  1397 PWs)   bands (ev):

    -5.0423   2.8578   4.4658   4.4848

          k =-0.2500 0.5833-0.0833 (  1400 PWs)   bands (ev):

    -4.1460   1.0383   3.1699   4.1025

          k = 0.5833-0.2500 0.7500 (  1411 PWs)   bands (ev):

    -3.0516  -0.6795   2.5723   3.8801

          k = 0.4167-0.0833 0.5833 (  1408 PWs)   bands (ev):

    -3.7587   0.3575   2.5367   4.3575

          k = 0.2500 0.0833 0.4167 (  1394 PWs)   bands (ev):

    -4.8204   2.0366   3.8562   5.0130

          k =-0.0833 0.7500 0.0833 (  1397 PWs)   bands (ev):

    -3.4445   0.2133   3.1371   3.4696

          k = 0.7500-0.0833 0.9167 (  1405 PWs)   bands (ev):

    -2.2684  -1.1093   2.3118   3.0717

          k = 0.5833 0.0833 0.7500 (  1407 PWs)   bands (ev):

    -2.6376  -0.7712   1.8349   3.6084

          k = 0.4167 0.2500 0.5833 (  1409 PWs)   bands (ev):

    -3.6503  -0.3058   3.4564   4.4529

          k =-0.0833-0.9167 0.0833 (  1395 PWs)   bands (ev):

    -2.3569  -1.1164   2.8718   3.2570

          k =-0.2500-0.7500-0.0833 (  1406 PWs)   bands (ev):

    -3.2796  -0.0056   2.6254   3.4072

          k =-0.0833-0.5833 0.0833 (  1403 PWs)   bands (ev):

    -4.3479   1.5643   3.6723   3.8864

          k =-0.2500 0.2500 0.2500 (  1399 PWs)   bands (ev):

    -5.0540   2.0909   5.2332   5.2332

          k =-0.4167 0.4167 0.0833 (  1404 PWs)   bands (ev):

    -4.3856   1.1591   3.1340   5.0650

          k = 0.4167-0.4167 0.9167 (  1412 PWs)   bands (ev):

    -3.2272  -0.2687   2.0464   4.2916

          k = 0.2500-0.2500 0.7500 (  1413 PWs)   bands (ev):

    -3.1749  -0.3473   2.5151   3.8174

          k =-0.2500 0.5833 0.2500 (  1411 PWs)   bands (ev):

    -3.9687   0.3645   3.5845   4.1852

          k = 0.5833-0.2500 1.0833 (  1408 PWs)   bands (ev):

    -2.9833  -0.3863   2.1459   3.4066

          k = 0.4167-0.0833 0.9167 (  1411 PWs)   bands (ev):

    -2.1660  -1.1170   1.9887   2.7513

          k =-0.2500-1.0833 0.2500 (  1413 PWs)   bands (ev):

    -2.3739  -1.0199   1.8643   3.6256

          k =-0.4167 0.4167 0.4167 (  1422 PWs)   bands (ev):

    -3.8837  -0.3999   4.8483   4.8483

          k = 0.4167-0.4167 1.2500 (  1402 PWs)   bands (ev):

    -3.2901  -0.7025   3.0379   4.4161

     highest occupied level (ev):     5.8390

!    total energy              =     -19.19346948 Ry
     Harris-Foulkes estimate   =     -19.19346947 Ry
     estimated scf accuracy    <          6.9E-09 Ry

     The total energy is the sum of the following terms:

     one-electron contribution =       4.95158349 Ry
     hartree contribution      =       1.13381739 Ry
     xc contribution           =      -8.59663506 Ry
     ewald contribution        =     -16.68223531 Ry

     convergence has been achieved in   5 iterations


     Computing stress (Cartesian axis) and pressure

          total   stress  (Ry/bohr**3)                   (kbar)     P=   -0.11
  -0.00000077  -0.00000000  -0.00000000         -0.11     -0.00     -0.00
  -0.00000000  -0.00000077  -0.00000000         -0.00     -0.11     -0.00
   0.00000000   0.00000000  -0.00000077          0.00      0.00     -0.11


     Writing output data file silicon.45.save

     init_run     :      0.71s CPU      1.64s WALL (       1 calls)
     electrons    :      2.91s CPU      6.23s WALL (       1 calls)
     stress       :      0.69s CPU      1.10s WALL (       1 calls)

     Called by init_run:
     wfcinit      :      0.20s CPU      0.65s WALL (       1 calls)
     potinit      :      0.11s CPU      0.22s WALL (       1 calls)

     Called by electrons:
     c_bands      :      1.84s CPU      4.09s WALL (       6 calls)
     sum_band     :      0.55s CPU      1.21s WALL (       6 calls)
     v_of_rho     :      0.30s CPU      0.49s WALL (       6 calls)
     newd         :      0.30s CPU      0.61s WALL (       6 calls)
     mix_rho      :      0.02s CPU      0.04s WALL (       6 calls)

     Called by c_bands:
     init_us_2    :      0.09s CPU      0.12s WALL (     392 calls)
     cegterg      :      1.62s CPU      3.67s WALL (     168 calls)

     Called by sum_band:
     sum_band:bec :      0.00s CPU      0.00s WALL (     168 calls)
     addusdens    :      0.27s CPU      0.52s WALL (       6 calls)

     Called by *egterg:
     h_psi        :      1.37s CPU      3.30s WALL (     523 calls)
     s_psi        :      0.06s CPU      0.10s WALL (     523 calls)
     g_psi        :      0.00s CPU      0.01s WALL (     327 calls)
     cdiaghg      :      0.06s CPU      0.13s WALL (     467 calls)

     Called by h_psi:
     h_psi:pot    :      1.36s CPU      3.29s WALL (     523 calls)
     h_psi:calbec :      0.17s CPU      0.46s WALL (     523 calls)
     vloc_psi     :      1.12s CPU      2.74s WALL (     523 calls)
     add_vuspsi   :      0.07s CPU      0.09s WALL (     523 calls)

     General routines
     calbec       :      0.28s CPU      0.65s WALL (     719 calls)
     fft          :      0.35s CPU      0.71s WALL (     110 calls)
     ffts         :      0.00s CPU      0.01s WALL (      12 calls)
     fftw         :      1.14s CPU      2.95s WALL (    4618 calls)
     interpolate  :      0.03s CPU      0.06s WALL (      12 calls)
     davcio       :      0.00s CPU      0.00s WALL (      28 calls)

     Parallel routines
     fft_scatter  :      1.17s CPU      3.22s WALL (    4740 calls)

     PWSCF        :     4.54s CPU         9.46s WALL


   This run was terminated on:  12:29:20  10Nov2017            

=------------------------------------------------------------------------------=
   JOB DONE.
=------------------------------------------------------------------------------=
