
     Program PHONON v.6.1 (svn rev. 13369) starts on  9Nov2017 at  1:21:16 

     This program is part of the open-source Quantum ESPRESSO suite
     for quantum simulation of materials; please cite
         "P. Giannozzi et al., J. Phys.:Condens. Matter 21 395502 (2009);
          URL http://www.quantum-espresso.org", 
     in publications or presentations arising from this work. More details at
     http://www.quantum-espresso.org/quote

     Parallel version (MPI), running on     4 processors
     R & G space division:  proc/nbgrp/npool/nimage =       4

     Reading data from directory:
     ./silicon.10.32.save

   Info: using nr1, nr2, nr3 values from input

   Info: using nr1, nr2, nr3 values from input

     IMPORTANT: XC functional enforced from input :
     Exchange-correlation      = SLA  PW   PBE  PBE ( 1  4  3  4 0 0)
     Any further DFT definition will be discarded
     Please, verify this is what you really want


     Parallelization info
     --------------------
     sticks:   dense  smooth     PW     G-vecs:    dense   smooth      PW
     Min          63      63     22                  684      684     140
     Max          64      64     23                  688      688     141
     Sum         253     253     91                 2741     2741     561


     Check: negative/imaginary core charge=   -0.000005    0.000000


     Dynamical matrices for ( 4, 4, 4)  uniform grid of q-points
     (   8q-points):
       N         xq(1)         xq(2)         xq(3) 
       1   0.000000000   0.000000000   0.000000000
       2  -0.250000000   0.250000000  -0.250000000
       3   0.500000000  -0.500000000   0.500000000
       4   0.000000000   0.500000000   0.000000000
       5   0.750000000  -0.250000000   0.750000000
       6   0.500000000   0.000000000   0.500000000
       7   0.000000000  -1.000000000   0.000000000
       8  -0.500000000  -1.000000000   0.000000000

     Calculation of q =    0.0000000   0.0000000   0.0000000

                                                                                

     bravais-lattice index     =            2
     lattice parameter (alat)  =      10.3200  a.u.
     unit-cell volume          =     274.7762 (a.u.)^3
     number of atoms/cell      =            2
     number of atomic types    =            1
     kinetic-energy cut-off    =      18.0000  Ry
     charge density cut-off    =      72.0000  Ry
     convergence threshold     =      1.0E-12
     beta                      =       0.7000
     number of iterations used =            4
     Exchange-correlation      = SLA  PW   PBE  PBE ( 1  4  3  4 0 0)


     celldm(1)=   10.32000  celldm(2)=    0.00000  celldm(3)=    0.00000
     celldm(4)=    0.00000  celldm(5)=    0.00000  celldm(6)=    0.00000

     crystal axes: (cart. coord. in units of alat)
               a(1) = ( -0.5000  0.0000  0.5000 )  
               a(2) = (  0.0000  0.5000  0.5000 )  
               a(3) = ( -0.5000  0.5000  0.0000 )  

     reciprocal axes: (cart. coord. in units 2 pi/alat)
               b(1) = ( -1.0000 -1.0000  1.0000 )  
               b(2) = (  1.0000  1.0000  1.0000 )  
               b(3) = ( -1.0000  1.0000 -1.0000 )  


     Atoms inside the unit cell: 

     Cartesian axes

     site n.  atom      mass           positions (alat units)
        1     Si  28.0860   tau(    1) = (    0.00000    0.00000    0.00000  )
        2     Si  28.0860   tau(    2) = (    0.25000    0.25000    0.25000  )

     Computing dynamical matrix for 
                    q = (   0.0000000   0.0000000   0.0000000 )

     49 Sym.Ops. (with q -> -q+G )


     G cutoff =  194.2371  (    685 G-vectors)     FFT grid: ( 20, 20, 20)
     number of k points=    10

     PseudoPot. # 1 for Si read from file:
     /home/max/quantum_espresso/qe-6.1/pseudo/si_pbe_v1.uspp.F.UPF.txt
     MD5 check sum: a056efeee980c13900f22a371efd63c1
     Pseudo is Ultrasoft + core correction, Zval =  4.0
     Generated by new atomic code, or converted to UPF format
     Using radial grid of  899 points,  6 beta functions with: 
                l(1) =   0
                l(2) =   0
                l(3) =   1
                l(4) =   1
                l(5) =   2
                l(6) =   2
     Q(r) pseudized with  8 coefficients,  rinner =    0.900   0.900   0.900
                                                       0.900   0.900

     Mode symmetry, O_h (m-3m)  point group:


     Electric field:
     Dielectric constant
     Born effective charges in two ways 


     Atomic displacements:
     There are   2 irreducible representations

     Representation     1      3 modes -T_2g G_25' G_5+  To be done

     Representation     2      3 modes -T_1u G_15  G_4-  To be done



     Alpha used in Ewald sum =   0.7000
     PHONON       :     0.39s CPU         0.40s WALL


     Electric Fields Calculation

      iter #   1 total cpu time :     0.8 secs   av.it.:   5.6
      thresh= 1.000E-02 alpha_mix =  0.700 |ddv_scf|^2 =  9.054E-07

      iter #   2 total cpu time :     0.9 secs   av.it.:   9.9
      thresh= 9.515E-05 alpha_mix =  0.700 |ddv_scf|^2 =  5.551E-08

      iter #   3 total cpu time :     1.1 secs   av.it.:   9.8
      thresh= 2.356E-05 alpha_mix =  0.700 |ddv_scf|^2 =  4.215E-09

      iter #   4 total cpu time :     1.3 secs   av.it.:   9.0
      thresh= 6.492E-06 alpha_mix =  0.700 |ddv_scf|^2 =  2.467E-11

      iter #   5 total cpu time :     1.5 secs   av.it.:   9.1
      thresh= 4.967E-07 alpha_mix =  0.700 |ddv_scf|^2 =  1.316E-14

     End of electric fields calculation

          Dielectric constant in cartesian axis 

          (      13.844550369      -0.000000000       0.000000000 )
          (      -0.000000000      13.844550369      -0.000000000 )
          (       0.000000000      -0.000000000      13.844550369 )

          Effective charges (d Force / dE) in cartesian axis

           atom      1   Si 
      Ex  (       -0.03129       -0.00000       -0.00000 )
      Ey  (       -0.00000       -0.03129        0.00000 )
      Ez  (       -0.00000        0.00000       -0.03129 )
           atom      2   Si 
      Ex  (       -0.03129        0.00000       -0.00000 )
      Ey  (        0.00000       -0.03129        0.00000 )
      Ez  (        0.00000       -0.00000       -0.03129 )


     Representation #  1 modes #   1  2  3

     Self-consistent Calculation

      iter #   1 total cpu time :     1.8 secs   av.it.:   4.9
      thresh= 1.000E-02 alpha_mix =  0.700 |ddv_scf|^2 =  2.237E-07

      iter #   2 total cpu time :     2.0 secs   av.it.:   9.7
      thresh= 4.729E-05 alpha_mix =  0.700 |ddv_scf|^2 =  1.380E-08

      iter #   3 total cpu time :     2.2 secs   av.it.:   9.3
      thresh= 1.175E-05 alpha_mix =  0.700 |ddv_scf|^2 =  8.538E-10

      iter #   4 total cpu time :     2.4 secs   av.it.:   9.0
      thresh= 2.922E-06 alpha_mix =  0.700 |ddv_scf|^2 =  1.874E-12

      iter #   5 total cpu time :     2.5 secs   av.it.:   9.4
      thresh= 1.369E-07 alpha_mix =  0.700 |ddv_scf|^2 =  1.222E-14

     End of self-consistent calculation

     Convergence has been achieved 


     Representation #  2 modes #   4  5  6

     Self-consistent Calculation

      iter #   1 total cpu time :     2.8 secs   av.it.:   5.0
      thresh= 1.000E-02 alpha_mix =  0.700 |ddv_scf|^2 =  1.699E-07

      iter #   2 total cpu time :     2.9 secs   av.it.:   9.6
      thresh= 4.122E-05 alpha_mix =  0.700 |ddv_scf|^2 =  1.323E-08

      iter #   3 total cpu time :     3.1 secs   av.it.:   9.3
      thresh= 1.150E-05 alpha_mix =  0.700 |ddv_scf|^2 =  8.432E-10

      iter #   4 total cpu time :     3.3 secs   av.it.:   9.5
      thresh= 2.904E-06 alpha_mix =  0.700 |ddv_scf|^2 =  5.055E-12

      iter #   5 total cpu time :     3.5 secs   av.it.:   9.0
      thresh= 2.248E-07 alpha_mix =  0.700 |ddv_scf|^2 =  4.380E-15

     End of self-consistent calculation

     Convergence has been achieved 

     Number of q in the star =    1
     List of q in the star:
          1   0.000000000   0.000000000   0.000000000

          Dielectric constant in cartesian axis 

          (      13.844550369      -0.000000000       0.000000000 )
          (      -0.000000000      13.844550369      -0.000000000 )
          (       0.000000000      -0.000000000      13.844550369 )

          Effective charges (d Force / dE) in cartesian axis

           atom      1   Si 
      Ex  (       -0.03129       -0.00000       -0.00000 )
      Ey  (       -0.00000       -0.03129        0.00000 )
      Ez  (       -0.00000        0.00000       -0.03129 )
           atom      2   Si 
      Ex  (       -0.03129        0.00000       -0.00000 )
      Ey  (        0.00000       -0.03129        0.00000 )
      Ez  (        0.00000       -0.00000       -0.03129 )

          Effective charges (d P / du) in cartesian axis 

           atom      1   Si 
      Px  (       -0.07208        0.00000        0.00000 )
      Py  (       -0.00000       -0.07208       -0.00000 )
      Pz  (        0.00000       -0.00000       -0.07208 )
           atom      2   Si 
      Px  (       -0.07208       -0.00000       -0.00000 )
      Py  (       -0.00000       -0.07208        0.00000 )
      Pz  (       -0.00000        0.00000       -0.07208 )

     Diagonalizing the dynamical matrix

     q = (    0.000000000   0.000000000   0.000000000 ) 

 **************************************************************************
     freq (    1) =       1.942582 [THz] =      64.797562 [cm-1]
     freq (    2) =       1.942582 [THz] =      64.797562 [cm-1]
     freq (    3) =       1.942582 [THz] =      64.797562 [cm-1]
     freq (    4) =      15.072740 [THz] =     502.772504 [cm-1]
     freq (    5) =      15.072740 [THz] =     502.772504 [cm-1]
     freq (    6) =      15.072740 [THz] =     502.772504 [cm-1]
 **************************************************************************

     Mode symmetry, O_h (m-3m)  point group:

     freq (  1 -  3) =         64.8  [cm-1]   --> T_1u G_15  G_4- I  
     freq (  4 -  6) =        502.8  [cm-1]   --> T_2g G_25' G_5+ R  

     Calculation of q =   -0.2500000   0.2500000  -0.2500000

   Info: using nr1, nr2, nr3 values from input

   Info: using nr1, nr2, nr3 values from input

     Parallelization info
     --------------------
     sticks:   dense  smooth     PW     G-vecs:    dense   smooth      PW
     Min          63      63     24                  684      684     161
     Max          64      64     25                  688      688     162
     Sum         253     253     97                 2741     2741     645



     bravais-lattice index     =            2
     lattice parameter (alat)  =      10.3200  a.u.
     unit-cell volume          =     274.7762 (a.u.)^3
     number of atoms/cell      =            2
     number of atomic types    =            1
     number of electrons       =         8.00
     number of Kohn-Sham states=            4
     kinetic-energy cutoff     =      18.0000  Ry
     charge density cutoff     =      72.0000  Ry
     Exchange-correlation      = SLA  PW   PBE  PBE ( 1  4  3  4 0 0)

     celldm(1)=  10.320000  celldm(2)=   0.000000  celldm(3)=   0.000000
     celldm(4)=   0.000000  celldm(5)=   0.000000  celldm(6)=   0.000000

     crystal axes: (cart. coord. in units of alat)
               a(1) = (  -0.500000   0.000000   0.500000 )  
               a(2) = (   0.000000   0.500000   0.500000 )  
               a(3) = (  -0.500000   0.500000   0.000000 )  

     reciprocal axes: (cart. coord. in units 2 pi/alat)
               b(1) = ( -1.000000 -1.000000  1.000000 )  
               b(2) = (  1.000000  1.000000  1.000000 )  
               b(3) = ( -1.000000  1.000000 -1.000000 )  


     PseudoPot. # 1 for Si read from file:
     /home/max/quantum_espresso/qe-6.1/pseudo/si_pbe_v1.uspp.F.UPF.txt
     MD5 check sum: a056efeee980c13900f22a371efd63c1
     Pseudo is Ultrasoft + core correction, Zval =  4.0
     Generated by new atomic code, or converted to UPF format
     Using radial grid of  899 points,  6 beta functions with: 
                l(1) =   0
                l(2) =   0
                l(3) =   1
                l(4) =   1
                l(5) =   2
                l(6) =   2
     Q(r) pseudized with  8 coefficients,  rinner =    0.900   0.900   0.900
                                                       0.900   0.900

     atomic species   valence    mass     pseudopotential
        Si             4.00    28.08600     Si( 1.00)

     48 Sym. Ops., with inversion, found



   Cartesian axes

     site n.     atom                  positions (alat units)
         1           Si  tau(   1) = (   0.0000000   0.0000000   0.0000000  )
         2           Si  tau(   2) = (   0.2500000   0.2500000   0.2500000  )

     number of k points=   120

     Number of k-points >= 100: set verbosity='high' to print them.

     Dense  grid:     2741 G-vectors     FFT dimensions: (  20,  20,  20)

     Estimated max dynamical RAM per process >       0.33MB

     Estimated total allocated dynamical RAM >       1.30MB

     Check: negative/imaginary core charge=   -0.000005    0.000000

     The potential is recalculated from file :
     ./_ph0/silicon.10.32.save/charge-density.dat

     Starting wfc are    8 atomic wfcs

     Band Structure Calculation
     Davidson diagonalization with overlap

     ethr =  1.25E-10,  avg # of iterations = 11.7

     total cpu time spent up to now is        0.8 secs

     End of band structure calculation

     Number of k-points >= 100: set verbosity='high' to print the bands.

     highest occupied level (ev):     5.7393

     Writing output data file silicon.10.32.save

                                                                                

     bravais-lattice index     =            2
     lattice parameter (alat)  =      10.3200  a.u.
     unit-cell volume          =     274.7762 (a.u.)^3
     number of atoms/cell      =            2
     number of atomic types    =            1
     kinetic-energy cut-off    =      18.0000  Ry
     charge density cut-off    =      72.0000  Ry
     convergence threshold     =      1.0E-12
     beta                      =       0.7000
     number of iterations used =            4
     Exchange-correlation      = SLA  PW   PBE  PBE ( 1  4  3  4 0 0)


     celldm(1)=   10.32000  celldm(2)=    0.00000  celldm(3)=    0.00000
     celldm(4)=    0.00000  celldm(5)=    0.00000  celldm(6)=    0.00000

     crystal axes: (cart. coord. in units of alat)
               a(1) = ( -0.5000  0.0000  0.5000 )  
               a(2) = (  0.0000  0.5000  0.5000 )  
               a(3) = ( -0.5000  0.5000  0.0000 )  

     reciprocal axes: (cart. coord. in units 2 pi/alat)
               b(1) = ( -1.0000 -1.0000  1.0000 )  
               b(2) = (  1.0000  1.0000  1.0000 )  
               b(3) = ( -1.0000  1.0000 -1.0000 )  


     Atoms inside the unit cell: 

     Cartesian axes

     site n.  atom      mass           positions (alat units)
        1     Si  28.0860   tau(    1) = (    0.00000    0.00000    0.00000  )
        2     Si  28.0860   tau(    2) = (    0.25000    0.25000    0.25000  )

     Computing dynamical matrix for 
                    q = (  -0.2500000   0.2500000  -0.2500000 )

      6 Sym.Ops. (no q -> -q+G )


     G cutoff =  194.2371  (    685 G-vectors)     FFT grid: ( 20, 20, 20)
     number of k points=   120

     PseudoPot. # 1 for Si read from file:
     /home/max/quantum_espresso/qe-6.1/pseudo/si_pbe_v1.uspp.F.UPF.txt
     MD5 check sum: a056efeee980c13900f22a371efd63c1
     Pseudo is Ultrasoft + core correction, Zval =  4.0
     Generated by new atomic code, or converted to UPF format
     Using radial grid of  899 points,  6 beta functions with: 
                l(1) =   0
                l(2) =   0
                l(3) =   1
                l(4) =   1
                l(5) =   2
                l(6) =   2
     Q(r) pseudized with  8 coefficients,  rinner =    0.900   0.900   0.900
                                                       0.900   0.900

     Mode symmetry, C_3v (3m)   point group:


     Atomic displacements:
     There are   4 irreducible representations

     Representation     1      1 modes -A_1  L_1  To be done

     Representation     2      1 modes -A_1  L_1  To be done

     Representation     3      2 modes -E    L_3  To be done

     Representation     4      2 modes -E    L_3  To be done



     Alpha used in Ewald sum =   0.7000
     PHONON       :     4.52s CPU         4.72s WALL



     Representation #  1 mode #   1

     Self-consistent Calculation

      iter #   1 total cpu time :     4.9 secs   av.it.:   5.5
      thresh= 1.000E-02 alpha_mix =  0.700 |ddv_scf|^2 =  2.480E-03

      iter #   2 total cpu time :     5.2 secs   av.it.:   7.5
      thresh= 4.980E-03 alpha_mix =  0.700 |ddv_scf|^2 =  3.737E-02

      iter #   3 total cpu time :     5.4 secs   av.it.:   6.3
      thresh= 1.000E-02 alpha_mix =  0.700 |ddv_scf|^2 =  1.715E-06

      iter #   4 total cpu time :     5.7 secs   av.it.:   8.2
      thresh= 1.310E-04 alpha_mix =  0.700 |ddv_scf|^2 =  1.141E-07

      iter #   5 total cpu time :     5.9 secs   av.it.:   8.1
      thresh= 3.379E-05 alpha_mix =  0.700 |ddv_scf|^2 =  4.365E-09

      iter #   6 total cpu time :     6.2 secs   av.it.:   8.0
      thresh= 6.607E-06 alpha_mix =  0.700 |ddv_scf|^2 =  5.449E-09

      iter #   7 total cpu time :     6.4 secs   av.it.:   6.0
      thresh= 7.382E-06 alpha_mix =  0.700 |ddv_scf|^2 =  3.649E-10

      iter #   8 total cpu time :     6.6 secs   av.it.:   7.4
      thresh= 1.910E-06 alpha_mix =  0.700 |ddv_scf|^2 =  3.787E-12

      iter #   9 total cpu time :     6.8 secs   av.it.:   7.2
      thresh= 1.946E-07 alpha_mix =  0.700 |ddv_scf|^2 =  1.328E-13

     End of self-consistent calculation

     Convergence has been achieved 


     Representation #  2 mode #   2

     Self-consistent Calculation

      iter #   1 total cpu time :     7.1 secs   av.it.:   5.5
      thresh= 1.000E-02 alpha_mix =  0.700 |ddv_scf|^2 =  2.480E-03

      iter #   2 total cpu time :     7.3 secs   av.it.:   7.5
      thresh= 4.980E-03 alpha_mix =  0.700 |ddv_scf|^2 =  3.737E-02

      iter #   3 total cpu time :     7.5 secs   av.it.:   6.3
      thresh= 1.000E-02 alpha_mix =  0.700 |ddv_scf|^2 =  1.715E-06

      iter #   4 total cpu time :     7.8 secs   av.it.:   8.2
      thresh= 1.310E-04 alpha_mix =  0.700 |ddv_scf|^2 =  1.141E-07

      iter #   5 total cpu time :     8.1 secs   av.it.:   8.1
      thresh= 3.379E-05 alpha_mix =  0.700 |ddv_scf|^2 =  4.365E-09

      iter #   6 total cpu time :     8.3 secs   av.it.:   8.0
      thresh= 6.607E-06 alpha_mix =  0.700 |ddv_scf|^2 =  5.449E-09

      iter #   7 total cpu time :     8.5 secs   av.it.:   6.0
      thresh= 7.382E-06 alpha_mix =  0.700 |ddv_scf|^2 =  3.649E-10

      iter #   8 total cpu time :     8.8 secs   av.it.:   7.4
      thresh= 1.910E-06 alpha_mix =  0.700 |ddv_scf|^2 =  3.787E-12

      iter #   9 total cpu time :     9.0 secs   av.it.:   7.2
      thresh= 1.946E-07 alpha_mix =  0.700 |ddv_scf|^2 =  1.328E-13

     End of self-consistent calculation

     Convergence has been achieved 


     Representation #  3 modes #   3  4

     Self-consistent Calculation

      iter #   1 total cpu time :     9.4 secs   av.it.:   4.9
      thresh= 1.000E-02 alpha_mix =  0.700 |ddv_scf|^2 =  5.539E-07

      iter #   2 total cpu time :    10.0 secs   av.it.:   9.5
      thresh= 7.442E-05 alpha_mix =  0.700 |ddv_scf|^2 =  4.082E-08

      iter #   3 total cpu time :    10.5 secs   av.it.:   9.3
      thresh= 2.020E-05 alpha_mix =  0.700 |ddv_scf|^2 =  3.497E-09

      iter #   4 total cpu time :    11.1 secs   av.it.:   9.0
      thresh= 5.914E-06 alpha_mix =  0.700 |ddv_scf|^2 =  1.078E-11

      iter #   5 total cpu time :    11.6 secs   av.it.:   9.2
      thresh= 3.283E-07 alpha_mix =  0.700 |ddv_scf|^2 =  4.929E-13

     End of self-consistent calculation

     Convergence has been achieved 


     Representation #  4 modes #   5  6

     Self-consistent Calculation

      iter #   1 total cpu time :    12.0 secs   av.it.:   5.0
      thresh= 1.000E-02 alpha_mix =  0.700 |ddv_scf|^2 =  5.538E-07

      iter #   2 total cpu time :    12.6 secs   av.it.:   9.6
      thresh= 7.442E-05 alpha_mix =  0.700 |ddv_scf|^2 =  4.079E-08

      iter #   3 total cpu time :    13.2 secs   av.it.:   9.4
      thresh= 2.020E-05 alpha_mix =  0.700 |ddv_scf|^2 =  3.495E-09

      iter #   4 total cpu time :    13.7 secs   av.it.:   9.1
      thresh= 5.912E-06 alpha_mix =  0.700 |ddv_scf|^2 =  1.079E-11

      iter #   5 total cpu time :    14.3 secs   av.it.:   9.2
      thresh= 3.285E-07 alpha_mix =  0.700 |ddv_scf|^2 =  4.934E-13

     End of self-consistent calculation

     Convergence has been achieved 

     Number of q in the star =    8
     List of q in the star:
          1  -0.250000000   0.250000000  -0.250000000
          2   0.250000000  -0.250000000  -0.250000000
          3   0.250000000  -0.250000000   0.250000000
          4   0.250000000   0.250000000   0.250000000
          5  -0.250000000  -0.250000000  -0.250000000
          6  -0.250000000  -0.250000000   0.250000000
          7  -0.250000000   0.250000000   0.250000000
          8   0.250000000   0.250000000  -0.250000000

     Diagonalizing the dynamical matrix

     q = (   -0.250000000   0.250000000  -0.250000000 ) 

 **************************************************************************
     freq (    1) =       3.382104 [THz] =     112.814843 [cm-1]
     freq (    2) =       3.382104 [THz] =     112.814843 [cm-1]
     freq (    3) =       6.959121 [THz] =     232.131301 [cm-1]
     freq (    4) =      14.145279 [THz] =     471.835711 [cm-1]
     freq (    5) =      14.464232 [THz] =     482.474831 [cm-1]
     freq (    6) =      14.464232 [THz] =     482.474831 [cm-1]
 **************************************************************************

     Mode symmetry, C_3v (3m)   point group:

     freq (  1 -  2) =        112.8  [cm-1]   --> E    L_3           
     freq (  3 -  3) =        232.1  [cm-1]   --> A_1  L_1           
     freq (  4 -  4) =        471.8  [cm-1]   --> A_1  L_1           
     freq (  5 -  6) =        482.5  [cm-1]   --> E    L_3           

     Calculation of q =    0.5000000  -0.5000000   0.5000000

   Info: using nr1, nr2, nr3 values from input

   Info: using nr1, nr2, nr3 values from input

     Parallelization info
     --------------------
     sticks:   dense  smooth     PW     G-vecs:    dense   smooth      PW
     Min          63      63     27                  684      684     186
     Max          64      64     28                  688      688     189
     Sum         253     253    109                 2741     2741     749



     bravais-lattice index     =            2
     lattice parameter (alat)  =      10.3200  a.u.
     unit-cell volume          =     274.7762 (a.u.)^3
     number of atoms/cell      =            2
     number of atomic types    =            1
     number of electrons       =         8.00
     number of Kohn-Sham states=            4
     kinetic-energy cutoff     =      18.0000  Ry
     charge density cutoff     =      72.0000  Ry
     Exchange-correlation      = SLA  PW   PBE  PBE ( 1  4  3  4 0 0)

     celldm(1)=  10.320000  celldm(2)=   0.000000  celldm(3)=   0.000000
     celldm(4)=   0.000000  celldm(5)=   0.000000  celldm(6)=   0.000000

     crystal axes: (cart. coord. in units of alat)
               a(1) = (  -0.500000   0.000000   0.500000 )  
               a(2) = (   0.000000   0.500000   0.500000 )  
               a(3) = (  -0.500000   0.500000   0.000000 )  

     reciprocal axes: (cart. coord. in units 2 pi/alat)
               b(1) = ( -1.000000 -1.000000  1.000000 )  
               b(2) = (  1.000000  1.000000  1.000000 )  
               b(3) = ( -1.000000  1.000000 -1.000000 )  


     PseudoPot. # 1 for Si read from file:
     /home/max/quantum_espresso/qe-6.1/pseudo/si_pbe_v1.uspp.F.UPF.txt
     MD5 check sum: a056efeee980c13900f22a371efd63c1
     Pseudo is Ultrasoft + core correction, Zval =  4.0
     Generated by new atomic code, or converted to UPF format
     Using radial grid of  899 points,  6 beta functions with: 
                l(1) =   0
                l(2) =   0
                l(3) =   1
                l(4) =   1
                l(5) =   2
                l(6) =   2
     Q(r) pseudized with  8 coefficients,  rinner =    0.900   0.900   0.900
                                                       0.900   0.900

     atomic species   valence    mass     pseudopotential
        Si             4.00    28.08600     Si( 1.00)

     48 Sym. Ops., with inversion, found



   Cartesian axes

     site n.     atom                  positions (alat units)
         1           Si  tau(   1) = (   0.0000000   0.0000000   0.0000000  )
         2           Si  tau(   2) = (   0.2500000   0.2500000   0.2500000  )

     number of k points=    60
                       cart. coord. in units 2pi/alat
        k(    1) = (  -0.1250000   0.1250000   0.1250000), wk =   0.0468750
        k(    2) = (   0.3750000  -0.3750000   0.6250000), wk =   0.0000000
        k(    3) = (  -0.3750000   0.3750000  -0.1250000), wk =   0.0468750
        k(    4) = (   0.1250000  -0.1250000   0.3750000), wk =   0.0000000
        k(    5) = (   0.3750000  -0.3750000   0.6250000), wk =   0.0468750
        k(    6) = (   0.8750000  -0.8750000   1.1250000), wk =   0.0000000
        k(    7) = (   0.1250000  -0.1250000   0.3750000), wk =   0.0468750
        k(    8) = (   0.6250000  -0.6250000   0.8750000), wk =   0.0000000
        k(    9) = (  -0.1250000   0.6250000   0.1250000), wk =   0.0937500
        k(   10) = (   0.3750000   0.1250000   0.6250000), wk =   0.0000000
        k(   11) = (   0.6250000  -0.1250000   0.8750000), wk =   0.0937500
        k(   12) = (   1.1250000  -0.6250000   1.3750000), wk =   0.0000000
        k(   13) = (   0.3750000   0.1250000   0.6250000), wk =   0.0937500
        k(   14) = (   0.8750000  -0.3750000   1.1250000), wk =   0.0000000
        k(   15) = (  -0.1250000  -0.8750000   0.1250000), wk =   0.0937500
        k(   16) = (   0.3750000  -1.3750000   0.6250000), wk =   0.0000000
        k(   17) = (  -0.3750000   0.3750000   0.3750000), wk =   0.0468750
        k(   18) = (   0.1250000  -0.1250000   0.8750000), wk =   0.0000000
        k(   19) = (   0.3750000  -0.3750000   1.1250000), wk =   0.0468750
        k(   20) = (   0.8750000  -0.8750000   1.6250000), wk =   0.0000000
        k(   21) = (   0.1250000  -0.1250000   0.1250000), wk =   0.0156250
        k(   22) = (   0.6250000  -0.6250000   0.6250000), wk =   0.0000000
        k(   23) = (  -0.3750000  -0.3750000  -0.1250000), wk =   0.0937500
        k(   24) = (   0.1250000  -0.8750000   0.3750000), wk =   0.0000000
        k(   25) = (  -0.1250000  -0.3750000   0.3750000), wk =   0.0468750
        k(   26) = (   0.3750000  -0.8750000   0.8750000), wk =   0.0000000
        k(   27) = (   0.3750000   0.3750000   0.6250000), wk =   0.0937500
        k(   28) = (   0.8750000  -0.1250000   1.1250000), wk =   0.0000000
        k(   29) = (   0.6250000   0.3750000  -0.3750000), wk =   0.0468750
        k(   30) = (   1.1250000  -0.1250000   0.1250000), wk =   0.0000000
        k(   31) = (   0.1250000   0.1250000   0.3750000), wk =   0.0937500
        k(   32) = (   0.6250000  -0.3750000   0.8750000), wk =   0.0000000
        k(   33) = (   0.3750000   0.1250000  -0.1250000), wk =   0.0468750
        k(   34) = (   0.8750000  -0.3750000   0.3750000), wk =   0.0000000
        k(   35) = (  -0.1250000  -0.6250000  -0.1250000), wk =   0.0468750
        k(   36) = (   0.3750000  -1.1250000   0.3750000), wk =   0.0000000
        k(   37) = (   0.1250000  -0.6250000   0.1250000), wk =   0.0468750
        k(   38) = (   0.6250000  -1.1250000   0.6250000), wk =   0.0000000
        k(   39) = (   0.6250000   0.1250000   0.8750000), wk =   0.0937500
        k(   40) = (   1.1250000  -0.3750000   1.3750000), wk =   0.0000000
        k(   41) = (  -0.8750000   0.1250000   0.6250000), wk =   0.0937500
        k(   42) = (  -0.3750000  -0.3750000   1.1250000), wk =   0.0000000
        k(   43) = (   0.8750000   0.1250000  -0.6250000), wk =   0.0937500
        k(   44) = (   1.3750000  -0.3750000  -0.1250000), wk =   0.0000000
        k(   45) = (   0.3750000  -0.1250000   0.6250000), wk =   0.0937500
        k(   46) = (   0.8750000  -0.6250000   1.1250000), wk =   0.0000000
        k(   47) = (  -0.6250000  -0.1250000   0.3750000), wk =   0.0937500
        k(   48) = (  -0.1250000  -0.6250000   0.8750000), wk =   0.0000000
        k(   49) = (   0.6250000  -0.1250000  -0.3750000), wk =   0.0937500
        k(   50) = (   1.1250000  -0.6250000   0.1250000), wk =   0.0000000
        k(   51) = (  -0.1250000   0.8750000  -0.1250000), wk =   0.0468750
        k(   52) = (   0.3750000   0.3750000   0.3750000), wk =   0.0000000
        k(   53) = (   0.1250000   0.8750000   0.1250000), wk =   0.0468750
        k(   54) = (   0.6250000   0.3750000   0.6250000), wk =   0.0000000
        k(   55) = (   0.3750000  -0.3750000   0.3750000), wk =   0.0156250
        k(   56) = (   0.8750000  -0.8750000   0.8750000), wk =   0.0000000
        k(   57) = (   0.3750000   0.3750000   1.1250000), wk =   0.0937500
        k(   58) = (   0.8750000  -0.1250000   1.6250000), wk =   0.0000000
        k(   59) = (   1.1250000   0.3750000  -0.3750000), wk =   0.0468750
        k(   60) = (   1.6250000  -0.1250000   0.1250000), wk =   0.0000000

     Dense  grid:     2741 G-vectors     FFT dimensions: (  20,  20,  20)

     Estimated max dynamical RAM per process >       0.33MB

     Estimated total allocated dynamical RAM >       1.30MB

     Check: negative/imaginary core charge=   -0.000005    0.000000

     The potential is recalculated from file :
     ./_ph0/silicon.10.32.save/charge-density.dat

     Starting wfc are    8 atomic wfcs

     Band Structure Calculation
     Davidson diagonalization with overlap

     ethr =  1.25E-10,  avg # of iterations = 11.7

     total cpu time spent up to now is        1.3 secs

     End of band structure calculation

          k =-0.1250 0.1250 0.1250 (   338 PWs)   bands (ev):

    -5.6162   4.4307   5.7393   5.7393

          k = 0.3750-0.3750 0.6250 (   359 PWs)   bands (ev):

    -3.4480  -0.6491   3.7719   4.4834

          k =-0.3750 0.3750-0.1250 (   352 PWs)   bands (ev):

    -4.5887   1.4318   3.7517   5.2564

          k = 0.1250-0.1250 0.3750 (   349 PWs)   bands (ev):

    -5.0881   2.8108   4.7284   4.7946

          k = 0.3750-0.3750 0.6250 (   359 PWs)   bands (ev):

    -3.4480  -0.6491   3.7719   4.4834

          k = 0.8750-0.8750 1.1250 (   338 PWs)   bands (ev):

    -5.6162   4.4307   5.7393   5.7393

          k = 0.1250-0.1250 0.3750 (   349 PWs)   bands (ev):

    -5.0881   2.8108   4.7284   4.7946

          k = 0.6250-0.6250 0.8750 (   352 PWs)   bands (ev):

    -4.5887   1.4318   3.7517   5.2564

          k =-0.1250 0.6250 0.1250 (   349 PWs)   bands (ev):

    -4.0551   1.0972   3.4022   3.8522

          k = 0.3750 0.1250 0.6250 (   357 PWs)   bands (ev):

    -3.6394   0.2224   2.7608   4.1287

          k = 0.6250-0.1250 0.8750 (   359 PWs)   bands (ev):

    -2.4130  -0.8694   2.0477   3.1234

          k = 1.1250-0.6250 1.3750 (   352 PWs)   bands (ev):

    -4.5887   1.4318   3.7517   5.2564

          k = 0.3750 0.1250 0.6250 (   357 PWs)   bands (ev):

    -3.6394   0.2224   2.7608   4.1287

          k = 0.8750-0.3750 1.1250 (   349 PWs)   bands (ev):

    -4.0551   1.0972   3.4022   3.8522

          k =-0.1250-0.8750 0.1250 (   358 PWs)   bands (ev):

    -2.5810  -0.7717   2.6563   3.3842

          k = 0.3750-1.3750 0.6250 (   359 PWs)   bands (ev):

    -3.4480  -0.6491   3.7719   4.4834

          k =-0.3750 0.3750 0.3750 (   353 PWs)   bands (ev):

    -4.1557   0.1404   4.9491   4.9491

          k = 0.1250-0.1250 0.8750 (   358 PWs)   bands (ev):

    -2.5810  -0.7717   2.6563   3.3842

          k = 0.3750-0.3750 1.1250 (   361 PWs)   bands (ev):

    -2.9514  -0.5653   2.1062   4.1662

          k = 0.8750-0.8750 1.6250 (   349 PWs)   bands (ev):

    -4.0551   1.0972   3.4022   3.8522

          k = 0.1250-0.1250 0.1250 (   338 PWs)   bands (ev):

    -5.6162   4.4307   5.7393   5.7393

          k = 0.6250-0.6250 0.6250 (   353 PWs)   bands (ev):

    -4.1557   0.1404   4.9491   4.9491

          k =-0.3750-0.3750-0.1250 (   352 PWs)   bands (ev):

    -4.5887   1.4318   3.7517   5.2564

          k = 0.1250-0.8750 0.3750 (   359 PWs)   bands (ev):

    -2.4130  -0.8694   2.0477   3.1234

          k =-0.1250-0.3750 0.3750 (   352 PWs)   bands (ev):

    -4.5887   1.4318   3.7517   5.2564

          k = 0.3750-0.8750 0.8750 (   349 PWs)   bands (ev):

    -4.0551   1.0972   3.4022   3.8522

          k = 0.3750 0.3750 0.6250 (   359 PWs)   bands (ev):

    -3.4480  -0.6491   3.7719   4.4834

          k = 0.8750-0.1250 1.1250 (   358 PWs)   bands (ev):

    -2.5810  -0.7717   2.6563   3.3842

          k = 0.6250 0.3750-0.3750 (   359 PWs)   bands (ev):

    -3.4480  -0.6491   3.7719   4.4834

          k = 1.1250-0.1250 0.1250 (   358 PWs)   bands (ev):

    -2.5810  -0.7717   2.6563   3.3842

          k = 0.1250 0.1250 0.3750 (   349 PWs)   bands (ev):

    -5.0881   2.8108   4.7284   4.7946

          k = 0.6250-0.3750 0.8750 (   357 PWs)   bands (ev):

    -3.6394   0.2224   2.7608   4.1287

          k = 0.3750 0.1250-0.1250 (   349 PWs)   bands (ev):

    -5.0881   2.8108   4.7284   4.7946

          k = 0.8750-0.3750 0.3750 (   361 PWs)   bands (ev):

    -2.9514  -0.5653   2.1062   4.1662

          k =-0.1250-0.6250-0.1250 (   349 PWs)   bands (ev):

    -4.0551   1.0972   3.4022   3.8522

          k = 0.3750-1.1250 0.3750 (   361 PWs)   bands (ev):

    -2.9514  -0.5653   2.1062   4.1662

          k = 0.1250-0.6250 0.1250 (   349 PWs)   bands (ev):

    -4.0551   1.0972   3.4022   3.8522

          k = 0.6250-1.1250 0.6250 (   352 PWs)   bands (ev):

    -4.5887   1.4318   3.7517   5.2564

          k = 0.6250 0.1250 0.8750 (   359 PWs)   bands (ev):

    -2.4130  -0.8694   2.0477   3.1234

          k = 1.1250-0.3750 1.3750 (   357 PWs)   bands (ev):

    -3.6394   0.2224   2.7608   4.1287

          k =-0.8750 0.1250 0.6250 (   359 PWs)   bands (ev):

    -2.4130  -0.8694   2.0477   3.1234

          k =-0.3750-0.3750 1.1250 (   361 PWs)   bands (ev):

    -2.9514  -0.5653   2.1062   4.1662

          k = 0.8750 0.1250-0.6250 (   359 PWs)   bands (ev):

    -2.4130  -0.8694   2.0477   3.1234

          k = 1.3750-0.3750-0.1250 (   357 PWs)   bands (ev):

    -3.6394   0.2224   2.7608   4.1287

          k = 0.3750-0.1250 0.6250 (   357 PWs)   bands (ev):

    -3.6394   0.2224   2.7608   4.1287

          k = 0.8750-0.6250 1.1250 (   349 PWs)   bands (ev):

    -5.0881   2.8108   4.7284   4.7946

          k =-0.6250-0.1250 0.3750 (   357 PWs)   bands (ev):

    -3.6394   0.2224   2.7608   4.1287

          k =-0.1250-0.6250 0.8750 (   359 PWs)   bands (ev):

    -2.4130  -0.8694   2.0477   3.1234

          k = 0.6250-0.1250-0.3750 (   357 PWs)   bands (ev):

    -3.6394   0.2224   2.7608   4.1287

          k = 1.1250-0.6250 0.1250 (   359 PWs)   bands (ev):

    -2.4130  -0.8694   2.0477   3.1234

          k =-0.1250 0.8750-0.1250 (   358 PWs)   bands (ev):

    -2.5810  -0.7717   2.6563   3.3842

          k = 0.3750 0.3750 0.3750 (   353 PWs)   bands (ev):

    -4.1557   0.1404   4.9491   4.9491

          k = 0.1250 0.8750 0.1250 (   358 PWs)   bands (ev):

    -2.5810  -0.7717   2.6563   3.3842

          k = 0.6250 0.3750 0.6250 (   359 PWs)   bands (ev):

    -3.4480  -0.6491   3.7719   4.4834

          k = 0.3750-0.3750 0.3750 (   353 PWs)   bands (ev):

    -4.1557   0.1404   4.9491   4.9491

          k = 0.8750-0.8750 0.8750 (   338 PWs)   bands (ev):

    -5.6162   4.4307   5.7393   5.7393

          k = 0.3750 0.3750 1.1250 (   361 PWs)   bands (ev):

    -2.9514  -0.5653   2.1062   4.1662

          k = 0.8750-0.1250 1.6250 (   359 PWs)   bands (ev):

    -2.4130  -0.8694   2.0477   3.1234

          k = 1.1250 0.3750-0.3750 (   361 PWs)   bands (ev):

    -2.9514  -0.5653   2.1062   4.1662

          k = 1.6250-0.1250 0.1250 (   349 PWs)   bands (ev):

    -5.0881   2.8108   4.7284   4.7946

     highest occupied level (ev):     5.7393

     Writing output data file silicon.10.32.save

                                                                                

     bravais-lattice index     =            2
     lattice parameter (alat)  =      10.3200  a.u.
     unit-cell volume          =     274.7762 (a.u.)^3
     number of atoms/cell      =            2
     number of atomic types    =            1
     kinetic-energy cut-off    =      18.0000  Ry
     charge density cut-off    =      72.0000  Ry
     convergence threshold     =      1.0E-12
     beta                      =       0.7000
     number of iterations used =            4
     Exchange-correlation      = SLA  PW   PBE  PBE ( 1  4  3  4 0 0)


     celldm(1)=   10.32000  celldm(2)=    0.00000  celldm(3)=    0.00000
     celldm(4)=    0.00000  celldm(5)=    0.00000  celldm(6)=    0.00000

     crystal axes: (cart. coord. in units of alat)
               a(1) = ( -0.5000  0.0000  0.5000 )  
               a(2) = (  0.0000  0.5000  0.5000 )  
               a(3) = ( -0.5000  0.5000  0.0000 )  

     reciprocal axes: (cart. coord. in units 2 pi/alat)
               b(1) = ( -1.0000 -1.0000  1.0000 )  
               b(2) = (  1.0000  1.0000  1.0000 )  
               b(3) = ( -1.0000  1.0000 -1.0000 )  


     Atoms inside the unit cell: 

     Cartesian axes

     site n.  atom      mass           positions (alat units)
        1     Si  28.0860   tau(    1) = (    0.00000    0.00000    0.00000  )
        2     Si  28.0860   tau(    2) = (    0.25000    0.25000    0.25000  )

     Computing dynamical matrix for 
                    q = (   0.5000000  -0.5000000   0.5000000 )

     13 Sym.Ops. (with q -> -q+G )


     G cutoff =  194.2371  (    685 G-vectors)     FFT grid: ( 20, 20, 20)
     number of k points=    60

     PseudoPot. # 1 for Si read from file:
     /home/max/quantum_espresso/qe-6.1/pseudo/si_pbe_v1.uspp.F.UPF.txt
     MD5 check sum: a056efeee980c13900f22a371efd63c1
     Pseudo is Ultrasoft + core correction, Zval =  4.0
     Generated by new atomic code, or converted to UPF format
     Using radial grid of  899 points,  6 beta functions with: 
                l(1) =   0
                l(2) =   0
                l(3) =   1
                l(4) =   1
                l(5) =   2
                l(6) =   2
     Q(r) pseudized with  8 coefficients,  rinner =    0.900   0.900   0.900
                                                       0.900   0.900


     Atomic displacements:
     There are   4 irreducible representations

     Representation     1      1 modes -  To be done

     Representation     2      1 modes -  To be done

     Representation     3      2 modes -  To be done

     Representation     4      2 modes -  To be done



     Alpha used in Ewald sum =   0.7000
     PHONON       :    14.38s CPU        15.03s WALL



     Representation #  1 mode #   1

     Self-consistent Calculation

      iter #   1 total cpu time :    15.1 secs   av.it.:   4.8
      thresh= 1.000E-02 alpha_mix =  0.700 |ddv_scf|^2 =  2.489E-05

      iter #   2 total cpu time :    15.3 secs   av.it.:   8.3
      thresh= 4.989E-04 alpha_mix =  0.700 |ddv_scf|^2 =  2.210E-05

      iter #   3 total cpu time :    15.4 secs   av.it.:   7.5
      thresh= 4.702E-04 alpha_mix =  0.700 |ddv_scf|^2 =  4.164E-08

      iter #   4 total cpu time :    15.6 secs   av.it.:   7.5
      thresh= 2.041E-05 alpha_mix =  0.700 |ddv_scf|^2 =  1.407E-10

      iter #   5 total cpu time :    15.7 secs   av.it.:   7.9
      thresh= 1.186E-06 alpha_mix =  0.700 |ddv_scf|^2 =  3.606E-12

      iter #   6 total cpu time :    15.8 secs   av.it.:   7.9
      thresh= 1.899E-07 alpha_mix =  0.700 |ddv_scf|^2 =  5.581E-14

     End of self-consistent calculation

     Convergence has been achieved 


     Representation #  2 mode #   2

     Self-consistent Calculation

      iter #   1 total cpu time :    16.0 secs   av.it.:   5.6
      thresh= 1.000E-02 alpha_mix =  0.700 |ddv_scf|^2 =  3.461E-04

      iter #   2 total cpu time :    16.1 secs   av.it.:   8.3
      thresh= 1.861E-03 alpha_mix =  0.700 |ddv_scf|^2 =  1.066E-03

      iter #   3 total cpu time :    16.2 secs   av.it.:   7.1
      thresh= 3.265E-03 alpha_mix =  0.700 |ddv_scf|^2 =  1.123E-07

      iter #   4 total cpu time :    16.4 secs   av.it.:   8.2
      thresh= 3.351E-05 alpha_mix =  0.700 |ddv_scf|^2 =  7.184E-09

      iter #   5 total cpu time :    16.5 secs   av.it.:   8.5
      thresh= 8.476E-06 alpha_mix =  0.700 |ddv_scf|^2 =  1.291E-10

      iter #   6 total cpu time :    16.7 secs   av.it.:   8.3
      thresh= 1.136E-06 alpha_mix =  0.700 |ddv_scf|^2 =  2.063E-12

      iter #   7 total cpu time :    16.8 secs   av.it.:   7.8
      thresh= 1.436E-07 alpha_mix =  0.700 |ddv_scf|^2 =  3.236E-15

     End of self-consistent calculation

     Convergence has been achieved 


     Representation #  3 modes #   3  4

     Self-consistent Calculation

      iter #   1 total cpu time :    17.0 secs   av.it.:   4.7
      thresh= 1.000E-02 alpha_mix =  0.700 |ddv_scf|^2 =  3.019E-07

      iter #   2 total cpu time :    17.3 secs   av.it.:   9.0
      thresh= 5.494E-05 alpha_mix =  0.700 |ddv_scf|^2 =  2.486E-08

      iter #   3 total cpu time :    17.6 secs   av.it.:   8.4
      thresh= 1.577E-05 alpha_mix =  0.700 |ddv_scf|^2 =  4.921E-10

      iter #   4 total cpu time :    17.9 secs   av.it.:   8.9
      thresh= 2.218E-06 alpha_mix =  0.700 |ddv_scf|^2 =  6.191E-12

      iter #   5 total cpu time :    18.2 secs   av.it.:   8.7
      thresh= 2.488E-07 alpha_mix =  0.700 |ddv_scf|^2 =  3.205E-14

     End of self-consistent calculation

     Convergence has been achieved 


     Representation #  4 modes #   5  6

     Self-consistent Calculation

      iter #   1 total cpu time :    18.4 secs   av.it.:   4.9
      thresh= 1.000E-02 alpha_mix =  0.700 |ddv_scf|^2 =  9.776E-07

      iter #   2 total cpu time :    18.7 secs   av.it.:   9.5
      thresh= 9.887E-05 alpha_mix =  0.700 |ddv_scf|^2 =  7.649E-08

      iter #   3 total cpu time :    19.0 secs   av.it.:   9.3
      thresh= 2.766E-05 alpha_mix =  0.700 |ddv_scf|^2 =  4.869E-09

      iter #   4 total cpu time :    19.3 secs   av.it.:   8.4
      thresh= 6.978E-06 alpha_mix =  0.700 |ddv_scf|^2 =  6.560E-12

      iter #   5 total cpu time :    19.6 secs   av.it.:   8.8
      thresh= 2.561E-07 alpha_mix =  0.700 |ddv_scf|^2 =  2.277E-14

     End of self-consistent calculation

     Convergence has been achieved 

     Number of q in the star =    4
     List of q in the star:
          1   0.500000000  -0.500000000   0.500000000
          2   0.500000000   0.500000000   0.500000000
          3  -0.500000000   0.500000000   0.500000000
          4   0.500000000   0.500000000  -0.500000000

     Diagonalizing the dynamical matrix

     q = (    0.500000000  -0.500000000   0.500000000 ) 

 **************************************************************************
     freq (    1) =       4.524431 [THz] =     150.918763 [cm-1]
     freq (    2) =       4.524431 [THz] =     150.918763 [cm-1]
     freq (    3) =      11.554019 [THz] =     385.400595 [cm-1]
     freq (    4) =      12.198290 [THz] =     406.891166 [cm-1]
     freq (    5) =      14.477774 [THz] =     482.926563 [cm-1]
     freq (    6) =      14.477774 [THz] =     482.926563 [cm-1]
 **************************************************************************

     Calculation of q =    0.0000000   0.5000000   0.0000000

   Info: using nr1, nr2, nr3 values from input

   Info: using nr1, nr2, nr3 values from input

     Parallelization info
     --------------------
     sticks:   dense  smooth     PW     G-vecs:    dense   smooth      PW
     Min          63      63     27                  684      684     175
     Max          64      64     28                  688      688     176
     Sum         253     253    109                 2741     2741     701



     bravais-lattice index     =            2
     lattice parameter (alat)  =      10.3200  a.u.
     unit-cell volume          =     274.7762 (a.u.)^3
     number of atoms/cell      =            2
     number of atomic types    =            1
     number of electrons       =         8.00
     number of Kohn-Sham states=            4
     kinetic-energy cutoff     =      18.0000  Ry
     charge density cutoff     =      72.0000  Ry
     Exchange-correlation      = SLA  PW   PBE  PBE ( 1  4  3  4 0 0)

     celldm(1)=  10.320000  celldm(2)=   0.000000  celldm(3)=   0.000000
     celldm(4)=   0.000000  celldm(5)=   0.000000  celldm(6)=   0.000000

     crystal axes: (cart. coord. in units of alat)
               a(1) = (  -0.500000   0.000000   0.500000 )  
               a(2) = (   0.000000   0.500000   0.500000 )  
               a(3) = (  -0.500000   0.500000   0.000000 )  

     reciprocal axes: (cart. coord. in units 2 pi/alat)
               b(1) = ( -1.000000 -1.000000  1.000000 )  
               b(2) = (  1.000000  1.000000  1.000000 )  
               b(3) = ( -1.000000  1.000000 -1.000000 )  


     PseudoPot. # 1 for Si read from file:
     /home/max/quantum_espresso/qe-6.1/pseudo/si_pbe_v1.uspp.F.UPF.txt
     MD5 check sum: a056efeee980c13900f22a371efd63c1
     Pseudo is Ultrasoft + core correction, Zval =  4.0
     Generated by new atomic code, or converted to UPF format
     Using radial grid of  899 points,  6 beta functions with: 
                l(1) =   0
                l(2) =   0
                l(3) =   1
                l(4) =   1
                l(5) =   2
                l(6) =   2
     Q(r) pseudized with  8 coefficients,  rinner =    0.900   0.900   0.900
                                                       0.900   0.900

     atomic species   valence    mass     pseudopotential
        Si             4.00    28.08600     Si( 1.00)

     48 Sym. Ops., with inversion, found



   Cartesian axes

     site n.     atom                  positions (alat units)
         1           Si  tau(   1) = (   0.0000000   0.0000000   0.0000000  )
         2           Si  tau(   2) = (   0.2500000   0.2500000   0.2500000  )

     number of k points=    80
                       cart. coord. in units 2pi/alat
        k(    1) = (  -0.1250000   0.1250000   0.1250000), wk =   0.0312500
        k(    2) = (  -0.1250000   0.6250000   0.1250000), wk =   0.0000000
        k(    3) = (  -0.3750000   0.3750000  -0.1250000), wk =   0.0625000
        k(    4) = (  -0.3750000   0.8750000  -0.1250000), wk =   0.0000000
        k(    5) = (   0.3750000  -0.3750000   0.6250000), wk =   0.0625000
        k(    6) = (   0.3750000   0.1250000   0.6250000), wk =   0.0000000
        k(    7) = (   0.1250000  -0.1250000   0.3750000), wk =   0.0625000
        k(    8) = (   0.1250000   0.3750000   0.3750000), wk =   0.0000000
        k(    9) = (  -0.1250000   0.6250000   0.1250000), wk =   0.0312500
        k(   10) = (  -0.1250000   1.1250000   0.1250000), wk =   0.0000000
        k(   11) = (   0.6250000  -0.1250000   0.8750000), wk =   0.0625000
        k(   12) = (   0.6250000   0.3750000   0.8750000), wk =   0.0000000
        k(   13) = (   0.3750000   0.1250000   0.6250000), wk =   0.0625000
        k(   14) = (   0.3750000   0.6250000   0.6250000), wk =   0.0000000
        k(   15) = (  -0.1250000  -0.8750000   0.1250000), wk =   0.0312500
        k(   16) = (  -0.1250000  -0.3750000   0.1250000), wk =   0.0000000
        k(   17) = (  -0.3750000   0.3750000   0.3750000), wk =   0.0312500
        k(   18) = (  -0.3750000   0.8750000   0.3750000), wk =   0.0000000
        k(   19) = (   0.3750000  -0.3750000   1.1250000), wk =   0.0625000
        k(   20) = (   0.3750000   0.1250000   1.1250000), wk =   0.0000000
        k(   21) = (  -0.1250000  -0.1250000   0.1250000), wk =   0.0312500
        k(   22) = (  -0.1250000   0.3750000   0.1250000), wk =   0.0000000
        k(   23) = (   0.1250000  -0.3750000   0.3750000), wk =   0.0625000
        k(   24) = (   0.1250000   0.1250000   0.3750000), wk =   0.0000000
        k(   25) = (   0.3750000  -0.1250000   0.3750000), wk =   0.0312500
        k(   26) = (   0.3750000   0.3750000   0.3750000), wk =   0.0000000
        k(   27) = (   0.3750000   0.1250000   0.3750000), wk =   0.0312500
        k(   28) = (   0.3750000   0.6250000   0.3750000), wk =   0.0000000
        k(   29) = (  -0.6250000   0.3750000  -0.3750000), wk =   0.0625000
        k(   30) = (  -0.6250000   0.8750000  -0.3750000), wk =   0.0000000
        k(   31) = (  -0.3750000   0.6250000  -0.3750000), wk =   0.0312500
        k(   32) = (  -0.3750000   1.1250000  -0.3750000), wk =   0.0000000
        k(   33) = (  -0.3750000  -0.6250000  -0.3750000), wk =   0.0312500
        k(   34) = (  -0.3750000  -0.1250000  -0.3750000), wk =   0.0000000
        k(   35) = (  -0.3750000   0.1250000  -0.1250000), wk =   0.0625000
        k(   36) = (  -0.3750000   0.6250000  -0.1250000), wk =   0.0000000
        k(   37) = (  -0.1250000   0.3750000  -0.1250000), wk =   0.0312500
        k(   38) = (  -0.1250000   0.8750000  -0.1250000), wk =   0.0000000
        k(   39) = (  -0.1250000  -0.3750000  -0.1250000), wk =   0.0312500
        k(   40) = (  -0.1250000   0.1250000  -0.1250000), wk =   0.0000000
        k(   41) = (  -0.1250000  -0.6250000   0.1250000), wk =   0.0312500
        k(   42) = (  -0.1250000  -0.1250000   0.1250000), wk =   0.0000000
        k(   43) = (   0.6250000  -0.1250000  -0.1250000), wk =   0.0625000
        k(   44) = (   0.6250000   0.3750000  -0.1250000), wk =   0.0000000
        k(   45) = (   0.6250000   0.1250000   0.1250000), wk =   0.0625000
        k(   46) = (   0.6250000   0.6250000   0.1250000), wk =   0.0000000
        k(   47) = (  -0.8750000   0.1250000  -0.6250000), wk =   0.0625000
        k(   48) = (  -0.8750000   0.6250000  -0.6250000), wk =   0.0000000
        k(   49) = (  -0.1250000   0.6250000  -0.8750000), wk =   0.0625000
        k(   50) = (  -0.1250000   1.1250000  -0.8750000), wk =   0.0000000
        k(   51) = (  -0.1250000   0.8750000  -0.6250000), wk =   0.0625000
        k(   52) = (  -0.1250000   1.3750000  -0.6250000), wk =   0.0000000
        k(   53) = (  -0.1250000  -0.8750000  -0.6250000), wk =   0.0625000
        k(   54) = (  -0.1250000  -0.3750000  -0.6250000), wk =   0.0000000
        k(   55) = (   0.8750000  -0.6250000   0.1250000), wk =   0.0625000
        k(   56) = (   0.8750000  -0.1250000   0.1250000), wk =   0.0000000
        k(   57) = (  -0.6250000  -0.1250000  -0.3750000), wk =   0.0625000
        k(   58) = (  -0.6250000   0.3750000  -0.3750000), wk =   0.0000000
        k(   59) = (   0.1250000   0.3750000  -0.6250000), wk =   0.0625000
        k(   60) = (   0.1250000   0.8750000  -0.6250000), wk =   0.0000000
        k(   61) = (   0.1250000   0.6250000  -0.3750000), wk =   0.0625000
        k(   62) = (   0.1250000   1.1250000  -0.3750000), wk =   0.0000000
        k(   63) = (   0.1250000  -0.6250000  -0.3750000), wk =   0.0625000
        k(   64) = (   0.1250000  -0.1250000  -0.3750000), wk =   0.0000000
        k(   65) = (   0.6250000  -0.3750000  -0.1250000), wk =   0.0625000
        k(   66) = (   0.6250000   0.1250000  -0.1250000), wk =   0.0000000
        k(   67) = (  -0.1250000   0.8750000   0.1250000), wk =   0.0312500
        k(   68) = (  -0.1250000   1.3750000   0.1250000), wk =   0.0000000
        k(   69) = (  -0.8750000  -0.1250000  -0.1250000), wk =   0.0625000
        k(   70) = (  -0.8750000   0.3750000  -0.1250000), wk =   0.0000000
        k(   71) = (  -0.8750000   0.1250000   0.1250000), wk =   0.0625000
        k(   72) = (  -0.8750000   0.6250000   0.1250000), wk =   0.0000000
        k(   73) = (  -0.3750000  -0.3750000   0.3750000), wk =   0.0312500
        k(   74) = (  -0.3750000   0.1250000   0.3750000), wk =   0.0000000
        k(   75) = (  -1.1250000   0.3750000  -0.3750000), wk =   0.0625000
        k(   76) = (  -1.1250000   0.8750000  -0.3750000), wk =   0.0000000
        k(   77) = (  -0.3750000   1.1250000  -0.3750000), wk =   0.0312500
        k(   78) = (  -0.3750000   1.6250000  -0.3750000), wk =   0.0000000
        k(   79) = (  -0.3750000  -1.1250000  -0.3750000), wk =   0.0312500
        k(   80) = (  -0.3750000  -0.6250000  -0.3750000), wk =   0.0000000

     Dense  grid:     2741 G-vectors     FFT dimensions: (  20,  20,  20)

     Estimated max dynamical RAM per process >       0.33MB

     Estimated total allocated dynamical RAM >       1.30MB

     Check: negative/imaginary core charge=   -0.000005    0.000000

     The potential is recalculated from file :
     ./_ph0/silicon.10.32.save/charge-density.dat

     Starting wfc are    8 atomic wfcs

     Band Structure Calculation
     Davidson diagonalization with overlap

     ethr =  1.25E-10,  avg # of iterations = 11.7

     total cpu time spent up to now is        1.9 secs

     End of band structure calculation

          k =-0.1250 0.1250 0.1250 (   338 PWs)   bands (ev):

    -5.6162   4.4307   5.7393   5.7393

          k =-0.1250 0.6250 0.1250 (   349 PWs)   bands (ev):

    -4.0551   1.0972   3.4022   3.8522

          k =-0.3750 0.3750-0.1250 (   352 PWs)   bands (ev):

    -4.5887   1.4318   3.7517   5.2564

          k =-0.3750 0.8750-0.1250 (   359 PWs)   bands (ev):

    -2.4130  -0.8694   2.0477   3.1234

          k = 0.3750-0.3750 0.6250 (   359 PWs)   bands (ev):

    -3.4480  -0.6491   3.7719   4.4834

          k = 0.3750 0.1250 0.6250 (   357 PWs)   bands (ev):

    -3.6394   0.2224   2.7608   4.1287

          k = 0.1250-0.1250 0.3750 (   349 PWs)   bands (ev):

    -5.0881   2.8108   4.7284   4.7946

          k = 0.1250 0.3750 0.3750 (   352 PWs)   bands (ev):

    -4.5887   1.4318   3.7517   5.2564

          k =-0.1250 0.6250 0.1250 (   349 PWs)   bands (ev):

    -4.0551   1.0972   3.4022   3.8522

          k =-0.1250 1.1250 0.1250 (   358 PWs)   bands (ev):

    -2.5810  -0.7717   2.6563   3.3842

          k = 0.6250-0.1250 0.8750 (   359 PWs)   bands (ev):

    -2.4130  -0.8694   2.0477   3.1234

          k = 0.6250 0.3750 0.8750 (   357 PWs)   bands (ev):

    -3.6394   0.2224   2.7608   4.1287

          k = 0.3750 0.1250 0.6250 (   357 PWs)   bands (ev):

    -3.6394   0.2224   2.7608   4.1287

          k = 0.3750 0.6250 0.6250 (   359 PWs)   bands (ev):

    -3.4480  -0.6491   3.7719   4.4834

          k =-0.1250-0.8750 0.1250 (   358 PWs)   bands (ev):

    -2.5810  -0.7717   2.6563   3.3842

          k =-0.1250-0.3750 0.1250 (   349 PWs)   bands (ev):

    -5.0881   2.8108   4.7284   4.7946

          k =-0.3750 0.3750 0.3750 (   353 PWs)   bands (ev):

    -4.1557   0.1404   4.9491   4.9491

          k =-0.3750 0.8750 0.3750 (   361 PWs)   bands (ev):

    -2.9514  -0.5653   2.1062   4.1662

          k = 0.3750-0.3750 1.1250 (   361 PWs)   bands (ev):

    -2.9514  -0.5653   2.1062   4.1662

          k = 0.3750 0.1250 1.1250 (   359 PWs)   bands (ev):

    -2.4130  -0.8694   2.0477   3.1234

          k =-0.1250-0.1250 0.1250 (   338 PWs)   bands (ev):

    -5.6162   4.4307   5.7393   5.7393

          k =-0.1250 0.3750 0.1250 (   349 PWs)   bands (ev):

    -5.0881   2.8108   4.7284   4.7946

          k = 0.1250-0.3750 0.3750 (   352 PWs)   bands (ev):

    -4.5887   1.4318   3.7517   5.2564

          k = 0.1250 0.1250 0.3750 (   349 PWs)   bands (ev):

    -5.0881   2.8108   4.7284   4.7946

          k = 0.3750-0.1250 0.3750 (   352 PWs)   bands (ev):

    -4.5887   1.4318   3.7517   5.2564

          k = 0.3750 0.3750 0.3750 (   353 PWs)   bands (ev):

    -4.1557   0.1404   4.9491   4.9491

          k = 0.3750 0.1250 0.3750 (   352 PWs)   bands (ev):

    -4.5887   1.4318   3.7517   5.2564

          k = 0.3750 0.6250 0.3750 (   359 PWs)   bands (ev):

    -3.4480  -0.6491   3.7719   4.4834

          k =-0.6250 0.3750-0.3750 (   359 PWs)   bands (ev):

    -3.4480  -0.6491   3.7719   4.4834

          k =-0.6250 0.8750-0.3750 (   357 PWs)   bands (ev):

    -3.6394   0.2224   2.7608   4.1287

          k =-0.3750 0.6250-0.3750 (   359 PWs)   bands (ev):

    -3.4480  -0.6491   3.7719   4.4834

          k =-0.3750 1.1250-0.3750 (   361 PWs)   bands (ev):

    -2.9514  -0.5653   2.1062   4.1662

          k =-0.3750-0.6250-0.3750 (   359 PWs)   bands (ev):

    -3.4480  -0.6491   3.7719   4.4834

          k =-0.3750-0.1250-0.3750 (   352 PWs)   bands (ev):

    -4.5887   1.4318   3.7517   5.2564

          k =-0.3750 0.1250-0.1250 (   349 PWs)   bands (ev):

    -5.0881   2.8108   4.7284   4.7946

          k =-0.3750 0.6250-0.1250 (   357 PWs)   bands (ev):

    -3.6394   0.2224   2.7608   4.1287

          k =-0.1250 0.3750-0.1250 (   349 PWs)   bands (ev):

    -5.0881   2.8108   4.7284   4.7946

          k =-0.1250 0.8750-0.1250 (   358 PWs)   bands (ev):

    -2.5810  -0.7717   2.6563   3.3842

          k =-0.1250-0.3750-0.1250 (   349 PWs)   bands (ev):

    -5.0881   2.8108   4.7284   4.7946

          k =-0.1250 0.1250-0.1250 (   338 PWs)   bands (ev):

    -5.6162   4.4307   5.7393   5.7393

          k =-0.1250-0.6250 0.1250 (   349 PWs)   bands (ev):

    -4.0551   1.0972   3.4022   3.8522

          k =-0.1250-0.1250 0.1250 (   338 PWs)   bands (ev):

    -5.6162   4.4307   5.7393   5.7393

          k = 0.6250-0.1250-0.1250 (   349 PWs)   bands (ev):

    -4.0551   1.0972   3.4022   3.8522

          k = 0.6250 0.3750-0.1250 (   357 PWs)   bands (ev):

    -3.6394   0.2224   2.7608   4.1287

          k = 0.6250 0.1250 0.1250 (   349 PWs)   bands (ev):

    -4.0551   1.0972   3.4022   3.8522

          k = 0.6250 0.6250 0.1250 (   361 PWs)   bands (ev):

    -2.9514  -0.5653   2.1062   4.1662

          k =-0.8750 0.1250-0.6250 (   359 PWs)   bands (ev):

    -2.4130  -0.8694   2.0477   3.1234

          k =-0.8750 0.6250-0.6250 (   352 PWs)   bands (ev):

    -4.5887   1.4318   3.7517   5.2564

          k =-0.1250 0.6250-0.8750 (   359 PWs)   bands (ev):

    -2.4130  -0.8694   2.0477   3.1234

          k =-0.1250 1.1250-0.8750 (   358 PWs)   bands (ev):

    -2.5810  -0.7717   2.6563   3.3842

          k =-0.1250 0.8750-0.6250 (   359 PWs)   bands (ev):

    -2.4130  -0.8694   2.0477   3.1234

          k =-0.1250 1.3750-0.6250 (   361 PWs)   bands (ev):

    -2.9514  -0.5653   2.1062   4.1662

          k =-0.1250-0.8750-0.6250 (   359 PWs)   bands (ev):

    -2.4130  -0.8694   2.0477   3.1234

          k =-0.1250-0.3750-0.6250 (   357 PWs)   bands (ev):

    -3.6394   0.2224   2.7608   4.1287

          k = 0.8750-0.6250 0.1250 (   359 PWs)   bands (ev):

    -2.4130  -0.8694   2.0477   3.1234

          k = 0.8750-0.1250 0.1250 (   358 PWs)   bands (ev):

    -2.5810  -0.7717   2.6563   3.3842

          k =-0.6250-0.1250-0.3750 (   357 PWs)   bands (ev):

    -3.6394   0.2224   2.7608   4.1287

          k =-0.6250 0.3750-0.3750 (   359 PWs)   bands (ev):

    -3.4480  -0.6491   3.7719   4.4834

          k = 0.1250 0.3750-0.6250 (   357 PWs)   bands (ev):

    -3.6394   0.2224   2.7608   4.1287

          k = 0.1250 0.8750-0.6250 (   359 PWs)   bands (ev):

    -2.4130  -0.8694   2.0477   3.1234

          k = 0.1250 0.6250-0.3750 (   357 PWs)   bands (ev):

    -3.6394   0.2224   2.7608   4.1287

          k = 0.1250 1.1250-0.3750 (   359 PWs)   bands (ev):

    -2.4130  -0.8694   2.0477   3.1234

          k = 0.1250-0.6250-0.3750 (   357 PWs)   bands (ev):

    -3.6394   0.2224   2.7608   4.1287

          k = 0.1250-0.1250-0.3750 (   349 PWs)   bands (ev):

    -5.0881   2.8108   4.7284   4.7946

          k = 0.6250-0.3750-0.1250 (   357 PWs)   bands (ev):

    -3.6394   0.2224   2.7608   4.1287

          k = 0.6250 0.1250-0.1250 (   349 PWs)   bands (ev):

    -4.0551   1.0972   3.4022   3.8522

          k =-0.1250 0.8750 0.1250 (   358 PWs)   bands (ev):

    -2.5810  -0.7717   2.6563   3.3842

          k =-0.1250 1.3750 0.1250 (   349 PWs)   bands (ev):

    -4.0551   1.0972   3.4022   3.8522

          k =-0.8750-0.1250-0.1250 (   358 PWs)   bands (ev):

    -2.5810  -0.7717   2.6563   3.3842

          k =-0.8750 0.3750-0.1250 (   359 PWs)   bands (ev):

    -2.4130  -0.8694   2.0477   3.1234

          k =-0.8750 0.1250 0.1250 (   358 PWs)   bands (ev):

    -2.5810  -0.7717   2.6563   3.3842

          k =-0.8750 0.6250 0.1250 (   359 PWs)   bands (ev):

    -2.4130  -0.8694   2.0477   3.1234

          k =-0.3750-0.3750 0.3750 (   353 PWs)   bands (ev):

    -4.1557   0.1404   4.9491   4.9491

          k =-0.3750 0.1250 0.3750 (   352 PWs)   bands (ev):

    -4.5887   1.4318   3.7517   5.2564

          k =-1.1250 0.3750-0.3750 (   361 PWs)   bands (ev):

    -2.9514  -0.5653   2.1062   4.1662

          k =-1.1250 0.8750-0.3750 (   349 PWs)   bands (ev):

    -4.0551   1.0972   3.4022   3.8522

          k =-0.3750 1.1250-0.3750 (   361 PWs)   bands (ev):

    -2.9514  -0.5653   2.1062   4.1662

          k =-0.3750 1.6250-0.3750 (   353 PWs)   bands (ev):

    -4.1557   0.1404   4.9491   4.9491

          k =-0.3750-1.1250-0.3750 (   361 PWs)   bands (ev):

    -2.9514  -0.5653   2.1062   4.1662

          k =-0.3750-0.6250-0.3750 (   359 PWs)   bands (ev):

    -3.4480  -0.6491   3.7719   4.4834

     highest occupied level (ev):     5.7393

     Writing output data file silicon.10.32.save

                                                                                

     bravais-lattice index     =            2
     lattice parameter (alat)  =      10.3200  a.u.
     unit-cell volume          =     274.7762 (a.u.)^3
     number of atoms/cell      =            2
     number of atomic types    =            1
     kinetic-energy cut-off    =      18.0000  Ry
     charge density cut-off    =      72.0000  Ry
     convergence threshold     =      1.0E-12
     beta                      =       0.7000
     number of iterations used =            4
     Exchange-correlation      = SLA  PW   PBE  PBE ( 1  4  3  4 0 0)


     celldm(1)=   10.32000  celldm(2)=    0.00000  celldm(3)=    0.00000
     celldm(4)=    0.00000  celldm(5)=    0.00000  celldm(6)=    0.00000

     crystal axes: (cart. coord. in units of alat)
               a(1) = ( -0.5000  0.0000  0.5000 )  
               a(2) = (  0.0000  0.5000  0.5000 )  
               a(3) = ( -0.5000  0.5000  0.0000 )  

     reciprocal axes: (cart. coord. in units 2 pi/alat)
               b(1) = ( -1.0000 -1.0000  1.0000 )  
               b(2) = (  1.0000  1.0000  1.0000 )  
               b(3) = ( -1.0000  1.0000 -1.0000 )  


     Atoms inside the unit cell: 

     Cartesian axes

     site n.  atom      mass           positions (alat units)
        1     Si  28.0860   tau(    1) = (    0.00000    0.00000    0.00000  )
        2     Si  28.0860   tau(    2) = (    0.25000    0.25000    0.25000  )

     Computing dynamical matrix for 
                    q = (   0.0000000   0.5000000   0.0000000 )

      8 Sym.Ops. (no q -> -q+G )


     G cutoff =  194.2371  (    685 G-vectors)     FFT grid: ( 20, 20, 20)
     number of k points=    80

     PseudoPot. # 1 for Si read from file:
     /home/max/quantum_espresso/qe-6.1/pseudo/si_pbe_v1.uspp.F.UPF.txt
     MD5 check sum: a056efeee980c13900f22a371efd63c1
     Pseudo is Ultrasoft + core correction, Zval =  4.0
     Generated by new atomic code, or converted to UPF format
     Using radial grid of  899 points,  6 beta functions with: 
                l(1) =   0
                l(2) =   0
                l(3) =   1
                l(4) =   1
                l(5) =   2
                l(6) =   2
     Q(r) pseudized with  8 coefficients,  rinner =    0.900   0.900   0.900
                                                       0.900   0.900

     Mode symmetry, C_4v (4mm)  point group:


     Atomic displacements:
     There are   4 irreducible representations

     Representation     1      1 modes -A_1  G_1 D_1  To be done

     Representation     2      1 modes -B_2  G_4 D_2'  To be done

     Representation     3      2 modes -E    G_5 D_5  To be done

     Representation     4      2 modes -E    G_5 D_5  To be done



     Alpha used in Ewald sum =   0.7000
     PHONON       :    19.53s CPU        20.43s WALL



     Representation #  1 mode #   1

     Self-consistent Calculation

      iter #   1 total cpu time :    20.6 secs   av.it.:   5.8
      thresh= 1.000E-02 alpha_mix =  0.700 |ddv_scf|^2 =  2.982E-03

      iter #   2 total cpu time :    20.8 secs   av.it.:   7.7
      thresh= 5.461E-03 alpha_mix =  0.700 |ddv_scf|^2 =  3.915E-02

      iter #   3 total cpu time :    20.9 secs   av.it.:   6.8
      thresh= 1.000E-02 alpha_mix =  0.700 |ddv_scf|^2 =  1.378E-07

      iter #   4 total cpu time :    21.1 secs   av.it.:   8.2
      thresh= 3.712E-05 alpha_mix =  0.700 |ddv_scf|^2 =  1.236E-08

      iter #   5 total cpu time :    21.3 secs   av.it.:   7.8
      thresh= 1.112E-05 alpha_mix =  0.700 |ddv_scf|^2 =  7.466E-10

      iter #   6 total cpu time :    21.4 secs   av.it.:   7.8
      thresh= 2.732E-06 alpha_mix =  0.700 |ddv_scf|^2 =  2.687E-12

      iter #   7 total cpu time :    21.6 secs   av.it.:   8.0
      thresh= 1.639E-07 alpha_mix =  0.700 |ddv_scf|^2 =  5.310E-13

     End of self-consistent calculation

     Convergence has been achieved 


     Representation #  2 mode #   2

     Self-consistent Calculation

      iter #   1 total cpu time :    21.8 secs   av.it.:   4.9
      thresh= 1.000E-02 alpha_mix =  0.700 |ddv_scf|^2 =  5.505E-06

      iter #   2 total cpu time :    22.0 secs   av.it.:   8.7
      thresh= 2.346E-04 alpha_mix =  0.700 |ddv_scf|^2 =  1.327E-06

      iter #   3 total cpu time :    22.1 secs   av.it.:   8.5
      thresh= 1.152E-04 alpha_mix =  0.700 |ddv_scf|^2 =  4.200E-08

      iter #   4 total cpu time :    22.3 secs   av.it.:   8.2
      thresh= 2.049E-05 alpha_mix =  0.700 |ddv_scf|^2 =  6.781E-10

      iter #   5 total cpu time :    22.5 secs   av.it.:   8.5
      thresh= 2.604E-06 alpha_mix =  0.700 |ddv_scf|^2 =  6.808E-12

      iter #   6 total cpu time :    22.7 secs   av.it.:   8.0
      thresh= 2.609E-07 alpha_mix =  0.700 |ddv_scf|^2 =  6.887E-14

     End of self-consistent calculation

     Convergence has been achieved 


     Representation #  3 modes #   3  4

     Self-consistent Calculation

      iter #   1 total cpu time :    23.0 secs   av.it.:   5.0
      thresh= 1.000E-02 alpha_mix =  0.700 |ddv_scf|^2 =  1.023E-06

      iter #   2 total cpu time :    23.4 secs   av.it.:   9.7
      thresh= 1.012E-04 alpha_mix =  0.700 |ddv_scf|^2 =  1.268E-07

      iter #   3 total cpu time :    23.8 secs   av.it.:   9.5
      thresh= 3.560E-05 alpha_mix =  0.700 |ddv_scf|^2 =  6.621E-09

      iter #   4 total cpu time :    24.1 secs   av.it.:   8.8
      thresh= 8.137E-06 alpha_mix =  0.700 |ddv_scf|^2 =  9.309E-12

      iter #   5 total cpu time :    24.5 secs   av.it.:   9.1
      thresh= 3.051E-07 alpha_mix =  0.700 |ddv_scf|^2 =  2.836E-13

     End of self-consistent calculation

     Convergence has been achieved 


     Representation #  4 modes #   5  6

     Self-consistent Calculation

      iter #   1 total cpu time :    24.8 secs   av.it.:   5.0
      thresh= 1.000E-02 alpha_mix =  0.700 |ddv_scf|^2 =  9.077E-07

      iter #   2 total cpu time :    25.2 secs   av.it.:   9.8
      thresh= 9.527E-05 alpha_mix =  0.700 |ddv_scf|^2 =  1.149E-07

      iter #   3 total cpu time :    25.6 secs   av.it.:   9.4
      thresh= 3.390E-05 alpha_mix =  0.700 |ddv_scf|^2 =  6.098E-09

      iter #   4 total cpu time :    26.0 secs   av.it.:   8.9
      thresh= 7.809E-06 alpha_mix =  0.700 |ddv_scf|^2 =  1.398E-11

      iter #   5 total cpu time :    26.4 secs   av.it.:   9.2
      thresh= 3.739E-07 alpha_mix =  0.700 |ddv_scf|^2 =  4.294E-14

     End of self-consistent calculation

     Convergence has been achieved 

     Number of q in the star =    6
     List of q in the star:
          1   0.000000000   0.500000000   0.000000000
          2   0.000000000  -0.500000000   0.000000000
          3   0.500000000   0.000000000   0.000000000
          4   0.000000000   0.000000000   0.500000000
          5   0.000000000   0.000000000  -0.500000000
          6  -0.500000000   0.000000000   0.000000000

     Diagonalizing the dynamical matrix

     q = (    0.000000000   0.500000000   0.000000000 ) 

 **************************************************************************
     freq (    1) =       4.207707 [THz] =     140.353991 [cm-1]
     freq (    2) =       4.207707 [THz] =     140.353991 [cm-1]
     freq (    3) =       7.210576 [THz] =     240.518927 [cm-1]
     freq (    4) =      13.779114 [THz] =     459.621761 [cm-1]
     freq (    5) =      13.779114 [THz] =     459.621761 [cm-1]
     freq (    6) =      14.378010 [THz] =     479.598781 [cm-1]
 **************************************************************************

     Mode symmetry, C_4v (4mm)  point group:

     freq (  1 -  2) =        140.4  [cm-1]   --> E    G_5 D_5       
     freq (  3 -  3) =        240.5  [cm-1]   --> A_1  G_1 D_1       
     freq (  4 -  5) =        459.6  [cm-1]   --> E    G_5 D_5       
     freq (  6 -  6) =        479.6  [cm-1]   --> B_2  G_4 D_2'      

     Calculation of q =    0.7500000  -0.2500000   0.7500000

   Info: using nr1, nr2, nr3 values from input

   Info: using nr1, nr2, nr3 values from input

     Parallelization info
     --------------------
     sticks:   dense  smooth     PW     G-vecs:    dense   smooth      PW
     Min          63      63     30                  684      684     216
     Max          64      64     31                  688      688     218
     Sum         253     253    121                 2741     2741     869



     bravais-lattice index     =            2
     lattice parameter (alat)  =      10.3200  a.u.
     unit-cell volume          =     274.7762 (a.u.)^3
     number of atoms/cell      =            2
     number of atomic types    =            1
     number of electrons       =         8.00
     number of Kohn-Sham states=            4
     kinetic-energy cutoff     =      18.0000  Ry
     charge density cutoff     =      72.0000  Ry
     Exchange-correlation      = SLA  PW   PBE  PBE ( 1  4  3  4 0 0)

     celldm(1)=  10.320000  celldm(2)=   0.000000  celldm(3)=   0.000000
     celldm(4)=   0.000000  celldm(5)=   0.000000  celldm(6)=   0.000000

     crystal axes: (cart. coord. in units of alat)
               a(1) = (  -0.500000   0.000000   0.500000 )  
               a(2) = (   0.000000   0.500000   0.500000 )  
               a(3) = (  -0.500000   0.500000   0.000000 )  

     reciprocal axes: (cart. coord. in units 2 pi/alat)
               b(1) = ( -1.000000 -1.000000  1.000000 )  
               b(2) = (  1.000000  1.000000  1.000000 )  
               b(3) = ( -1.000000  1.000000 -1.000000 )  


     PseudoPot. # 1 for Si read from file:
     /home/max/quantum_espresso/qe-6.1/pseudo/si_pbe_v1.uspp.F.UPF.txt
     MD5 check sum: a056efeee980c13900f22a371efd63c1
     Pseudo is Ultrasoft + core correction, Zval =  4.0
     Generated by new atomic code, or converted to UPF format
     Using radial grid of  899 points,  6 beta functions with: 
                l(1) =   0
                l(2) =   0
                l(3) =   1
                l(4) =   1
                l(5) =   2
                l(6) =   2
     Q(r) pseudized with  8 coefficients,  rinner =    0.900   0.900   0.900
                                                       0.900   0.900

     atomic species   valence    mass     pseudopotential
        Si             4.00    28.08600     Si( 1.00)

     48 Sym. Ops., with inversion, found



   Cartesian axes

     site n.     atom                  positions (alat units)
         1           Si  tau(   1) = (   0.0000000   0.0000000   0.0000000  )
         2           Si  tau(   2) = (   0.2500000   0.2500000   0.2500000  )

     number of k points=   288

     Number of k-points >= 100: set verbosity='high' to print them.

     Dense  grid:     2741 G-vectors     FFT dimensions: (  20,  20,  20)

     Estimated max dynamical RAM per process >       0.33MB

     Estimated total allocated dynamical RAM >       1.30MB

     Check: negative/imaginary core charge=   -0.000005    0.000000

     The potential is recalculated from file :
     ./_ph0/silicon.10.32.save/charge-density.dat

     Starting wfc are    8 atomic wfcs

     Band Structure Calculation
     Davidson diagonalization with overlap

     ethr =  1.25E-10,  avg # of iterations = 11.6

     total cpu time spent up to now is        3.8 secs

     End of band structure calculation

     Number of k-points >= 100: set verbosity='high' to print the bands.

     highest occupied level (ev):     5.7393

     Writing output data file silicon.10.32.save

                                                                                

     bravais-lattice index     =            2
     lattice parameter (alat)  =      10.3200  a.u.
     unit-cell volume          =     274.7762 (a.u.)^3
     number of atoms/cell      =            2
     number of atomic types    =            1
     kinetic-energy cut-off    =      18.0000  Ry
     charge density cut-off    =      72.0000  Ry
     convergence threshold     =      1.0E-12
     beta                      =       0.7000
     number of iterations used =            4
     Exchange-correlation      = SLA  PW   PBE  PBE ( 1  4  3  4 0 0)


     celldm(1)=   10.32000  celldm(2)=    0.00000  celldm(3)=    0.00000
     celldm(4)=    0.00000  celldm(5)=    0.00000  celldm(6)=    0.00000

     crystal axes: (cart. coord. in units of alat)
               a(1) = ( -0.5000  0.0000  0.5000 )  
               a(2) = (  0.0000  0.5000  0.5000 )  
               a(3) = ( -0.5000  0.5000  0.0000 )  

     reciprocal axes: (cart. coord. in units 2 pi/alat)
               b(1) = ( -1.0000 -1.0000  1.0000 )  
               b(2) = (  1.0000  1.0000  1.0000 )  
               b(3) = ( -1.0000  1.0000 -1.0000 )  


     Atoms inside the unit cell: 

     Cartesian axes

     site n.  atom      mass           positions (alat units)
        1     Si  28.0860   tau(    1) = (    0.00000    0.00000    0.00000  )
        2     Si  28.0860   tau(    2) = (    0.25000    0.25000    0.25000  )

     Computing dynamical matrix for 
                    q = (   0.7500000  -0.2500000   0.7500000 )

      2 Sym.Ops. (no q -> -q+G )


     G cutoff =  194.2371  (    685 G-vectors)     FFT grid: ( 20, 20, 20)
     number of k points=   288

     PseudoPot. # 1 for Si read from file:
     /home/max/quantum_espresso/qe-6.1/pseudo/si_pbe_v1.uspp.F.UPF.txt
     MD5 check sum: a056efeee980c13900f22a371efd63c1
     Pseudo is Ultrasoft + core correction, Zval =  4.0
     Generated by new atomic code, or converted to UPF format
     Using radial grid of  899 points,  6 beta functions with: 
                l(1) =   0
                l(2) =   0
                l(3) =   1
                l(4) =   1
                l(5) =   2
                l(6) =   2
     Q(r) pseudized with  8 coefficients,  rinner =    0.900   0.900   0.900
                                                       0.900   0.900

     Mode symmetry, C_s (m)     point group:


     Atomic displacements:
     There are   6 irreducible representations

     Representation     1      1 modes -A'  To be done

     Representation     2      1 modes -A'  To be done

     Representation     3      1 modes -A'  To be done

     Representation     4      1 modes -A'  To be done

     Representation     5      1 modes -A''  To be done

     Representation     6      1 modes -A''  To be done



     Alpha used in Ewald sum =   0.7000
     PHONON       :    27.72s CPU        28.88s WALL



     Representation #  1 mode #   1

     Self-consistent Calculation

      iter #   1 total cpu time :    29.4 secs   av.it.:   5.3
      thresh= 1.000E-02 alpha_mix =  0.700 |ddv_scf|^2 =  6.136E-05

      iter #   2 total cpu time :    30.0 secs   av.it.:   8.9
      thresh= 7.833E-04 alpha_mix =  0.700 |ddv_scf|^2 =  1.602E-04

      iter #   3 total cpu time :    30.6 secs   av.it.:   7.6
      thresh= 1.266E-03 alpha_mix =  0.700 |ddv_scf|^2 =  1.141E-06

      iter #   4 total cpu time :    31.2 secs   av.it.:   8.4
      thresh= 1.068E-04 alpha_mix =  0.700 |ddv_scf|^2 =  5.560E-08

      iter #   5 total cpu time :    31.9 secs   av.it.:   8.3
      thresh= 2.358E-05 alpha_mix =  0.700 |ddv_scf|^2 =  7.221E-09

      iter #   6 total cpu time :    32.5 secs   av.it.:   8.5
      thresh= 8.498E-06 alpha_mix =  0.700 |ddv_scf|^2 =  7.818E-11

      iter #   7 total cpu time :    33.2 secs   av.it.:   8.8
      thresh= 8.842E-07 alpha_mix =  0.700 |ddv_scf|^2 =  2.810E-12

      iter #   8 total cpu time :    33.8 secs   av.it.:   8.6
      thresh= 1.676E-07 alpha_mix =  0.700 |ddv_scf|^2 =  1.768E-13

     End of self-consistent calculation

     Convergence has been achieved 


     Representation #  2 mode #   2

     Self-consistent Calculation

      iter #   1 total cpu time :    34.3 secs   av.it.:   5.4
      thresh= 1.000E-02 alpha_mix =  0.700 |ddv_scf|^2 =  1.093E-04

      iter #   2 total cpu time :    35.0 secs   av.it.:   8.7
      thresh= 1.046E-03 alpha_mix =  0.700 |ddv_scf|^2 =  3.112E-04

      iter #   3 total cpu time :    35.6 secs   av.it.:   7.4
      thresh= 1.764E-03 alpha_mix =  0.700 |ddv_scf|^2 =  7.793E-07

      iter #   4 total cpu time :    36.2 secs   av.it.:   8.6
      thresh= 8.828E-05 alpha_mix =  0.700 |ddv_scf|^2 =  5.525E-08

      iter #   5 total cpu time :    36.8 secs   av.it.:   8.2
      thresh= 2.351E-05 alpha_mix =  0.700 |ddv_scf|^2 =  1.013E-08

      iter #   6 total cpu time :    37.5 secs   av.it.:   8.5
      thresh= 1.006E-05 alpha_mix =  0.700 |ddv_scf|^2 =  7.801E-11

      iter #   7 total cpu time :    38.1 secs   av.it.:   8.8
      thresh= 8.832E-07 alpha_mix =  0.700 |ddv_scf|^2 =  2.443E-12

      iter #   8 total cpu time :    38.7 secs   av.it.:   8.7
      thresh= 1.563E-07 alpha_mix =  0.700 |ddv_scf|^2 =  5.288E-13

     End of self-consistent calculation

     Convergence has been achieved 


     Representation #  3 mode #   3

     Self-consistent Calculation

      iter #   1 total cpu time :    39.3 secs   av.it.:   5.3
      thresh= 1.000E-02 alpha_mix =  0.700 |ddv_scf|^2 =  8.573E-05

      iter #   2 total cpu time :    39.9 secs   av.it.:   8.8
      thresh= 9.259E-04 alpha_mix =  0.700 |ddv_scf|^2 =  2.285E-04

      iter #   3 total cpu time :    40.5 secs   av.it.:   7.4
      thresh= 1.512E-03 alpha_mix =  0.700 |ddv_scf|^2 =  1.332E-06

      iter #   4 total cpu time :    41.1 secs   av.it.:   8.2
      thresh= 1.154E-04 alpha_mix =  0.700 |ddv_scf|^2 =  5.633E-08

      iter #   5 total cpu time :    41.8 secs   av.it.:   8.4
      thresh= 2.373E-05 alpha_mix =  0.700 |ddv_scf|^2 =  1.035E-08

      iter #   6 total cpu time :    42.4 secs   av.it.:   8.5
      thresh= 1.018E-05 alpha_mix =  0.700 |ddv_scf|^2 =  4.601E-11

      iter #   7 total cpu time :    43.0 secs   av.it.:   8.7
      thresh= 6.783E-07 alpha_mix =  0.700 |ddv_scf|^2 =  1.552E-12

      iter #   8 total cpu time :    43.7 secs   av.it.:   8.8
      thresh= 1.246E-07 alpha_mix =  0.700 |ddv_scf|^2 =  2.109E-13

     End of self-consistent calculation

     Convergence has been achieved 


     Representation #  4 mode #   4

     Self-consistent Calculation

      iter #   1 total cpu time :    44.2 secs   av.it.:   5.2
      thresh= 1.000E-02 alpha_mix =  0.700 |ddv_scf|^2 =  3.780E-05

      iter #   2 total cpu time :    44.9 secs   av.it.:   8.9
[...]
        k(   59) = (  -0.8750000   0.1250000  -0.1250000), wk =   0.0625000
        k(   60) = (  -1.3750000  -0.8750000  -0.1250000), wk =   0.0000000
        k(   61) = (  -1.1250000   0.3750000  -0.3750000), wk =   0.0625000
        k(   62) = (  -1.6250000  -0.6250000  -0.3750000), wk =   0.0000000
        k(   63) = (  -0.3750000   0.3750000   1.1250000), wk =   0.0625000
        k(   64) = (  -0.8750000  -0.6250000   1.1250000), wk =   0.0000000

     Dense  grid:     2741 G-vectors     FFT dimensions: (  20,  20,  20)

     Estimated max dynamical RAM per process >       0.33MB

     Estimated total allocated dynamical RAM >       1.30MB

     Check: negative/imaginary core charge=   -0.000005    0.000000

     The potential is recalculated from file :
     ./_ph0/silicon.10.32.save/charge-density.dat

     Starting wfc are    8 atomic wfcs

     Band Structure Calculation
     Davidson diagonalization with overlap

     ethr =  1.25E-10,  avg # of iterations = 11.6

     total cpu time spent up to now is        5.9 secs

     End of band structure calculation

          k =-0.1250 0.1250 0.1250 (   338 PWs)   bands (ev):

    -5.6162   4.4307   5.7393   5.7393

          k =-0.6250-0.8750 0.1250 (   359 PWs)   bands (ev):

    -2.4130  -0.8694   2.0477   3.1234

          k =-0.3750 0.3750-0.1250 (   352 PWs)   bands (ev):

    -4.5887   1.4318   3.7517   5.2564

          k =-0.8750-0.6250-0.1250 (   359 PWs)   bands (ev):

    -2.4130  -0.8694   2.0477   3.1234

          k = 0.3750-0.3750 0.6250 (   359 PWs)   bands (ev):

    -3.4480  -0.6491   3.7719   4.4834

          k =-0.1250-1.3750 0.6250 (   361 PWs)   bands (ev):

    -2.9514  -0.5653   2.1062   4.1662

          k = 0.1250-0.1250 0.3750 (   349 PWs)   bands (ev):

    -5.0881   2.8108   4.7284   4.7946

          k =-0.3750-1.1250 0.3750 (   361 PWs)   bands (ev):

    -2.9514  -0.5653   2.1062   4.1662

          k =-0.1250 0.6250 0.1250 (   349 PWs)   bands (ev):

    -4.0551   1.0972   3.4022   3.8522

          k =-0.6250-0.3750 0.1250 (   357 PWs)   bands (ev):

    -3.6394   0.2224   2.7608   4.1287

          k = 0.6250-0.1250 0.8750 (   359 PWs)   bands (ev):

    -2.4130  -0.8694   2.0477   3.1234

          k = 0.1250-1.1250 0.8750 (   358 PWs)   bands (ev):

    -2.5810  -0.7717   2.6563   3.3842

          k = 0.3750 0.1250 0.6250 (   357 PWs)   bands (ev):

    -3.6394   0.2224   2.7608   4.1287

          k =-0.1250-0.8750 0.6250 (   359 PWs)   bands (ev):

    -2.4130  -0.8694   2.0477   3.1234

          k =-0.1250-0.8750 0.1250 (   358 PWs)   bands (ev):

    -2.5810  -0.7717   2.6563   3.3842

          k =-0.6250-1.8750 0.1250 (   349 PWs)   bands (ev):

    -4.0551   1.0972   3.4022   3.8522

          k =-0.3750 0.3750 0.3750 (   353 PWs)   bands (ev):

    -4.1557   0.1404   4.9491   4.9491

          k =-0.8750-0.6250 0.3750 (   357 PWs)   bands (ev):

    -3.6394   0.2224   2.7608   4.1287

          k = 0.3750-0.3750 1.1250 (   361 PWs)   bands (ev):

    -2.9514  -0.5653   2.1062   4.1662

          k =-0.1250-1.3750 1.1250 (   359 PWs)   bands (ev):

    -2.4130  -0.8694   2.0477   3.1234

          k = 0.1250-0.3750 0.3750 (   352 PWs)   bands (ev):

    -4.5887   1.4318   3.7517   5.2564

          k =-0.3750-1.3750 0.3750 (   359 PWs)   bands (ev):

    -3.4480  -0.6491   3.7719   4.4834

          k = 0.3750-0.3750-0.1250 (   352 PWs)   bands (ev):

    -4.5887   1.4318   3.7517   5.2564

          k =-0.1250-1.3750-0.1250 (   349 PWs)   bands (ev):

    -4.0551   1.0972   3.4022   3.8522

          k =-0.6250 0.3750-0.3750 (   359 PWs)   bands (ev):

    -3.4480  -0.6491   3.7719   4.4834

          k =-1.1250-0.6250-0.3750 (   357 PWs)   bands (ev):

    -3.6394   0.2224   2.7608   4.1287

          k =-0.3750 0.3750 0.6250 (   359 PWs)   bands (ev):

    -3.4480  -0.6491   3.7719   4.4834

          k =-0.8750-0.6250 0.6250 (   352 PWs)   bands (ev):

    -4.5887   1.4318   3.7517   5.2564

          k =-0.3750 0.1250-0.1250 (   349 PWs)   bands (ev):

    -5.0881   2.8108   4.7284   4.7946

          k =-0.8750-0.8750-0.1250 (   358 PWs)   bands (ev):

    -2.5810  -0.7717   2.6563   3.3842

          k =-0.1250 0.1250 0.3750 (   349 PWs)   bands (ev):

    -5.0881   2.8108   4.7284   4.7946

          k =-0.6250-0.8750 0.3750 (   357 PWs)   bands (ev):

    -3.6394   0.2224   2.7608   4.1287

          k = 0.1250 0.6250-0.1250 (   349 PWs)   bands (ev):

    -4.0551   1.0972   3.4022   3.8522

          k =-0.3750-0.3750-0.1250 (   352 PWs)   bands (ev):

    -4.5887   1.4318   3.7517   5.2564

          k = 0.6250 0.1250-0.1250 (   349 PWs)   bands (ev):

    -4.0551   1.0972   3.4022   3.8522

          k = 0.1250-0.8750-0.1250 (   358 PWs)   bands (ev):

    -2.5810  -0.7717   2.6563   3.3842

          k =-0.8750 0.1250-0.6250 (   359 PWs)   bands (ev):

    -2.4130  -0.8694   2.0477   3.1234

          k =-1.3750-0.8750-0.6250 (   352 PWs)   bands (ev):

    -4.5887   1.4318   3.7517   5.2564

          k = 0.8750-0.1250 0.6250 (   359 PWs)   bands (ev):

    -2.4130  -0.8694   2.0477   3.1234

          k = 0.3750-1.1250 0.6250 (   357 PWs)   bands (ev):

    -3.6394   0.2224   2.7608   4.1287

          k =-0.6250 0.1250 0.8750 (   359 PWs)   bands (ev):

    -2.4130  -0.8694   2.0477   3.1234

          k =-1.1250-0.8750 0.8750 (   338 PWs)   bands (ev):

    -5.6162   4.4307   5.7393   5.7393

          k =-0.1250 0.8750 0.6250 (   359 PWs)   bands (ev):

    -2.4130  -0.8694   2.0477   3.1234

          k =-0.6250-0.1250 0.6250 (   361 PWs)   bands (ev):

    -2.9514  -0.5653   2.1062   4.1662

          k = 0.1250 0.8750-0.6250 (   359 PWs)   bands (ev):

    -2.4130  -0.8694   2.0477   3.1234

          k =-0.3750-0.1250-0.6250 (   357 PWs)   bands (ev):

    -3.6394   0.2224   2.7608   4.1287

          k =-0.6250-0.1250-0.3750 (   357 PWs)   bands (ev):

    -3.6394   0.2224   2.7608   4.1287

          k =-1.1250-1.1250-0.3750 (   349 PWs)   bands (ev):

    -4.0551   1.0972   3.4022   3.8522

          k = 0.6250 0.1250 0.3750 (   357 PWs)   bands (ev):

    -3.6394   0.2224   2.7608   4.1287

          k = 0.1250-0.8750 0.3750 (   359 PWs)   bands (ev):

    -2.4130  -0.8694   2.0477   3.1234

          k =-0.3750-0.1250 0.6250 (   357 PWs)   bands (ev):

    -3.6394   0.2224   2.7608   4.1287

          k =-0.8750-1.1250 0.6250 (   349 PWs)   bands (ev):

    -5.0881   2.8108   4.7284   4.7946

          k = 0.1250 0.6250 0.3750 (   357 PWs)   bands (ev):

    -3.6394   0.2224   2.7608   4.1287

          k =-0.3750-0.3750 0.3750 (   353 PWs)   bands (ev):

    -4.1557   0.1404   4.9491   4.9491

          k =-0.1250 0.6250-0.3750 (   357 PWs)   bands (ev):

    -3.6394   0.2224   2.7608   4.1287

          k =-0.6250-0.3750-0.3750 (   359 PWs)   bands (ev):

    -3.4480  -0.6491   3.7719   4.4834

          k = 0.1250-0.8750-0.1250 (   358 PWs)   bands (ev):

    -2.5810  -0.7717   2.6563   3.3842

          k =-0.3750-1.8750-0.1250 (   349 PWs)   bands (ev):

    -5.0881   2.8108   4.7284   4.7946

          k =-0.8750 0.1250-0.1250 (   358 PWs)   bands (ev):

    -2.5810  -0.7717   2.6563   3.3842

          k =-1.3750-0.8750-0.1250 (   359 PWs)   bands (ev):

    -2.4130  -0.8694   2.0477   3.1234

          k =-1.1250 0.3750-0.3750 (   361 PWs)   bands (ev):

    -2.9514  -0.5653   2.1062   4.1662

          k =-1.6250-0.6250-0.3750 (   359 PWs)   bands (ev):

    -3.4480  -0.6491   3.7719   4.4834

          k =-0.3750 0.3750 1.1250 (   361 PWs)   bands (ev):

    -2.9514  -0.5653   2.1062   4.1662

          k =-0.8750-0.6250 1.1250 (   349 PWs)   bands (ev):

    -5.0881   2.8108   4.7284   4.7946

     highest occupied level (ev):     5.7393

     Writing output data file silicon.10.32.save

                                                                                

     bravais-lattice index     =            2
     lattice parameter (alat)  =      10.3200  a.u.
     unit-cell volume          =     274.7762 (a.u.)^3
     number of atoms/cell      =            2
     number of atomic types    =            1
     kinetic-energy cut-off    =      18.0000  Ry
     charge density cut-off    =      72.0000  Ry
     convergence threshold     =      1.0E-12
     beta                      =       0.7000
     number of iterations used =            4
     Exchange-correlation      = SLA  PW   PBE  PBE ( 1  4  3  4 0 0)


     celldm(1)=   10.32000  celldm(2)=    0.00000  celldm(3)=    0.00000
     celldm(4)=    0.00000  celldm(5)=    0.00000  celldm(6)=    0.00000

     crystal axes: (cart. coord. in units of alat)
               a(1) = ( -0.5000  0.0000  0.5000 )  
               a(2) = (  0.0000  0.5000  0.5000 )  
               a(3) = ( -0.5000  0.5000  0.0000 )  

     reciprocal axes: (cart. coord. in units 2 pi/alat)
               b(1) = ( -1.0000 -1.0000  1.0000 )  
               b(2) = (  1.0000  1.0000  1.0000 )  
               b(3) = ( -1.0000  1.0000 -1.0000 )  


     Atoms inside the unit cell: 

     Cartesian axes

     site n.  atom      mass           positions (alat units)
        1     Si  28.0860   tau(    1) = (    0.00000    0.00000    0.00000  )
        2     Si  28.0860   tau(    2) = (    0.25000    0.25000    0.25000  )

     Computing dynamical matrix for 
                    q = (  -0.5000000  -1.0000000   0.0000000 )

      8 Sym.Ops. (no q -> -q+G )


     G cutoff =  194.2371  (    685 G-vectors)     FFT grid: ( 20, 20, 20)
     number of k points=    64

     PseudoPot. # 1 for Si read from file:
     /home/max/quantum_espresso/qe-6.1/pseudo/si_pbe_v1.uspp.F.UPF.txt
     MD5 check sum: a056efeee980c13900f22a371efd63c1
     Pseudo is Ultrasoft + core correction, Zval =  4.0
     Generated by new atomic code, or converted to UPF format
     Using radial grid of  899 points,  6 beta functions with: 
                l(1) =   0
                l(2) =   0
                l(3) =   1
                l(4) =   1
                l(5) =   2
                l(6) =   2
     Q(r) pseudized with  8 coefficients,  rinner =    0.900   0.900   0.900
                                                       0.900   0.900


     Atomic displacements:
     There are   3 irreducible representations

     Representation     1      2 modes -  To be done

     Representation     2      2 modes -  To be done

     Representation     3      2 modes -  To be done



     Alpha used in Ewald sum =   0.7000
     PHONON       :  1m 9.05s CPU     1m12.11s WALL



     Representation #  1 modes #   1  2

     Self-consistent Calculation

      iter #   1 total cpu time :    72.4 secs   av.it.:   5.3
      thresh= 1.000E-02 alpha_mix =  0.700 |ddv_scf|^2 =  6.356E-06

      iter #   2 total cpu time :    72.7 secs   av.it.:   9.9
      thresh= 2.521E-04 alpha_mix =  0.700 |ddv_scf|^2 =  3.446E-06

      iter #   3 total cpu time :    73.0 secs   av.it.:   9.3
      thresh= 1.856E-04 alpha_mix =  0.700 |ddv_scf|^2 =  8.379E-09

      iter #   4 total cpu time :    73.3 secs   av.it.:   9.1
      thresh= 9.154E-06 alpha_mix =  0.700 |ddv_scf|^2 =  1.906E-11

      iter #   5 total cpu time :    73.6 secs   av.it.:   9.1
      thresh= 4.365E-07 alpha_mix =  0.700 |ddv_scf|^2 =  5.270E-13

     End of self-consistent calculation

     Convergence has been achieved 


     Representation #  2 modes #   3  4

     Self-consistent Calculation

      iter #   1 total cpu time :    73.9 secs   av.it.:   5.2
      thresh= 1.000E-02 alpha_mix =  0.700 |ddv_scf|^2 =  9.838E-06

      iter #   2 total cpu time :    74.2 secs   av.it.:   9.9
      thresh= 3.137E-04 alpha_mix =  0.700 |ddv_scf|^2 =  1.304E-05

      iter #   3 total cpu time :    74.5 secs   av.it.:   9.1
      thresh= 3.611E-04 alpha_mix =  0.700 |ddv_scf|^2 =  9.830E-09

      iter #   4 total cpu time :    74.8 secs   av.it.:   8.9
      thresh= 9.915E-06 alpha_mix =  0.700 |ddv_scf|^2 =  7.881E-11

      iter #   5 total cpu time :    75.1 secs   av.it.:   9.4
      thresh= 8.878E-07 alpha_mix =  0.700 |ddv_scf|^2 =  1.713E-12

      iter #   6 total cpu time :    75.5 secs   av.it.:   9.1
      thresh= 1.309E-07 alpha_mix =  0.700 |ddv_scf|^2 =  1.430E-14

     End of self-consistent calculation

     Convergence has been achieved 


     Representation #  3 modes #   5  6

     Self-consistent Calculation

      iter #   1 total cpu time :    75.7 secs   av.it.:   5.1
      thresh= 1.000E-02 alpha_mix =  0.700 |ddv_scf|^2 =  2.659E-06

      iter #   2 total cpu time :    76.0 secs   av.it.:   9.7
      thresh= 1.631E-04 alpha_mix =  0.700 |ddv_scf|^2 =  1.454E-06

      iter #   3 total cpu time :    76.3 secs   av.it.:   9.1
      thresh= 1.206E-04 alpha_mix =  0.700 |ddv_scf|^2 =  8.248E-09

      iter #   4 total cpu time :    76.6 secs   av.it.:   8.8
      thresh= 9.082E-06 alpha_mix =  0.700 |ddv_scf|^2 =  4.269E-11

      iter #   5 total cpu time :    76.9 secs   av.it.:   9.0
      thresh= 6.534E-07 alpha_mix =  0.700 |ddv_scf|^2 =  6.994E-13

     End of self-consistent calculation

     Convergence has been achieved 

     Number of q in the star =    6
     List of q in the star:
          1  -0.500000000  -1.000000000   0.000000000
          2   0.000000000   1.000000000   0.500000000
          3   0.000000000  -1.000000000  -0.500000000
          4   0.500000000   1.000000000   0.000000000
          5  -1.000000000  -0.500000000   0.000000000
          6   0.000000000  -0.500000000  -1.000000000

     Diagonalizing the dynamical matrix

     q = (   -0.500000000  -1.000000000   0.000000000 ) 

 **************************************************************************
     freq (    1) =       6.971399 [THz] =     232.540853 [cm-1]
     freq (    2) =       6.971399 [THz] =     232.540853 [cm-1]
     freq (    3) =      10.816347 [THz] =     360.794492 [cm-1]
     freq (    4) =      10.816347 [THz] =     360.794492 [cm-1]
     freq (    5) =      13.852720 [THz] =     462.077009 [cm-1]
     freq (    6) =      13.852720 [THz] =     462.077009 [cm-1]
 **************************************************************************

     init_run     :      0.52s CPU      0.53s WALL (       7 calls)
     electrons    :      4.44s CPU      4.59s WALL (       7 calls)

     Called by init_run:
     wfcinit      :      0.00s CPU      0.00s WALL (       7 calls)
     potinit      :      0.02s CPU      0.02s WALL (       7 calls)

     Called by electrons:
     c_bands      :      4.44s CPU      4.58s WALL (       7 calls)
     v_of_rho     :      0.01s CPU      0.01s WALL (       8 calls)
     newd         :      0.03s CPU      0.03s WALL (       8 calls)

     Called by c_bands:
     init_us_2    :      0.66s CPU      0.69s WALL (   17588 calls)
     cegterg      :      3.73s CPU      3.85s WALL (     796 calls)

     Called by sum_band:

     Called by *egterg:
     h_psi        :     40.91s CPU     42.81s WALL (  152224 calls)
     s_psi        :      5.75s CPU      6.03s WALL (  309168 calls)
     g_psi        :      0.03s CPU      0.03s WALL (    9268 calls)
     cdiaghg      :      0.42s CPU      0.43s WALL (   10064 calls)

     Called by h_psi:
     h_psi:pot    :     40.73s CPU     42.62s WALL (  152224 calls)
     h_psi:calbec :      3.98s CPU      4.16s WALL (  152224 calls)
     vloc_psi     :     33.67s CPU     35.24s WALL (  152224 calls)
     add_vuspsi   :      2.86s CPU      3.00s WALL (  152224 calls)

     General routines
     calbec       :      8.78s CPU      9.20s WALL (  345540 calls)
     fft          :      0.30s CPU      0.31s WALL (    5239 calls)
     ffts         :      0.13s CPU      0.13s WALL (    2748 calls)
     fftw         :     38.97s CPU     40.79s WALL ( 1378408 calls)
     davcio       :      0.29s CPU      0.31s WALL (   79045 calls)

     Parallel routines
     fft_scatter  :      7.20s CPU      7.57s WALL ( 1386395 calls)

     PHONON       :  1m13.67s CPU     1m16.96s WALL

     INITIALIZATION: 
     phq_setup    :      0.05s CPU      0.05s WALL (       8 calls)
     phq_init     :      1.90s CPU      1.93s WALL (       8 calls)

     phq_init     :      1.90s CPU      1.93s WALL (       8 calls)
     set_drhoc    :      0.28s CPU      0.28s WALL (      24 calls)
     init_vloc    :      0.01s CPU      0.01s WALL (       8 calls)
     init_us_1    :      0.47s CPU      0.48s WALL (       8 calls)
     newd         :      0.03s CPU      0.03s WALL (       8 calls)
     dvanqq       :      0.23s CPU      0.23s WALL (       8 calls)
     drho         :      0.97s CPU      1.00s WALL (       8 calls)

     DYNAMICAL MATRIX:
     dynmat0      :      0.48s CPU      0.48s WALL (       8 calls)
     phqscf       :     64.37s CPU     67.38s WALL (       8 calls)
     dynmatrix    :      0.01s CPU      0.02s WALL (       8 calls)

     phqscf       :     64.37s CPU     67.38s WALL (       8 calls)
     solve_linter :     63.69s CPU     66.67s WALL (      32 calls)
     drhodv       :      0.49s CPU      0.49s WALL (      32 calls)

     dynmat0      :      0.48s CPU      0.48s WALL (       8 calls)
     dynmat_us    :      0.26s CPU      0.26s WALL (       8 calls)
     d2ionq       :      0.01s CPU      0.01s WALL (       8 calls)
     dynmatcc     :      0.20s CPU      0.20s WALL (       8 calls)

     dynmat_us    :      0.26s CPU      0.26s WALL (       8 calls)
     addusdynmat  :      0.00s CPU      0.00s WALL (       8 calls)

     phqscf       :     64.37s CPU     67.38s WALL (       8 calls)
     solve_linter :     63.69s CPU     66.67s WALL (      32 calls)

     solve_linter :     63.69s CPU     66.67s WALL (      32 calls)
     dvqpsi_us    :      1.58s CPU      1.65s WALL (    2508 calls)
     ortho        :      0.91s CPU      0.95s WALL (   15550 calls)
     cgsolve      :     49.78s CPU     52.16s WALL (   15550 calls)
     incdrhoscf   :      4.42s CPU      4.63s WALL (   15550 calls)
     addusddens   :      1.06s CPU      1.07s WALL (     228 calls)
     vpsifft      :      3.22s CPU      3.38s WALL (   12922 calls)
     dv_of_drho   :      0.20s CPU      0.20s WALL (     295 calls)
     mix_pot      :      0.05s CPU      0.06s WALL (     201 calls)
     psymdvscf    :      0.79s CPU      0.80s WALL (     196 calls)
     newdq        :      1.12s CPU      1.17s WALL (     201 calls)
     adddvscf     :      0.46s CPU      0.48s WALL (   13042 calls)
     drhodvus     :      0.00s CPU      0.00s WALL (      32 calls)

     dvqpsi_us    :      1.58s CPU      1.65s WALL (    2508 calls)
     dvqpsi_us_on :      0.81s CPU      0.85s WALL (    2508 calls)

     cgsolve      :     49.78s CPU     52.16s WALL (   15550 calls)
     ch_psi       :     48.38s CPU     50.68s WALL (  141364 calls)

     ch_psi       :     48.38s CPU     50.68s WALL (  141364 calls)
     h_psi        :     40.91s CPU     42.81s WALL (  152224 calls)
     last         :      7.56s CPU      7.92s WALL (  141364 calls)

     h_psi        :     40.91s CPU     42.81s WALL (  152224 calls)
     add_vuspsi   :      2.86s CPU      3.00s WALL (  152224 calls)

     incdrhoscf   :      4.42s CPU      4.63s WALL (   15550 calls)
     addusdbec    :      0.59s CPU      0.62s WALL (   17998 calls)

     drhodvus     :      0.00s CPU      0.00s WALL (      32 calls)

      General routines
     calbec       :      8.78s CPU      9.20s WALL (  345540 calls)
     fft          :      0.30s CPU      0.31s WALL (    5239 calls)
     ffts         :      0.13s CPU      0.13s WALL (    2748 calls)
     fftw         :     38.97s CPU     40.79s WALL ( 1378408 calls)
     davcio       :      0.29s CPU      0.31s WALL (   79045 calls)
     write_rec    :      0.20s CPU      0.21s WALL (     233 calls)


     PHONON       :  1m13.67s CPU     1m16.96s WALL


   This run was terminated on:   1:22:33   9Nov2017            

=------------------------------------------------------------------------------=
   JOB DONE.
=------------------------------------------------------------------------------=
