
     Program PHONON v.6.1 (svn rev. 13369) starts on  9Nov2017 at 17:50:22 

     This program is part of the open-source Quantum ESPRESSO suite
     for quantum simulation of materials; please cite
         "P. Giannozzi et al., J. Phys.:Condens. Matter 21 395502 (2009);
          URL http://www.quantum-espresso.org", 
     in publications or presentations arising from this work. More details at
     http://www.quantum-espresso.org/quote

     Parallel version (MPI), running on     4 processors
     R & G space division:  proc/nbgrp/npool/nimage =       4

     Reading data from directory:
     ./silicon.10.408.save

   Info: using nr1, nr2, nr3 values from input

   Info: using nr1, nr2, nr3 values from input

     IMPORTANT: XC functional enforced from input :
     Exchange-correlation      = SLA  PW   PBE  PBE ( 1  4  3  4 0 0)
     Any further DFT definition will be discarded
     Please, verify this is what you really want


     Parallelization info
     --------------------
     sticks:   dense  smooth     PW     G-vecs:    dense   smooth      PW
     Min          66      66     22                  722      722     152
     Max          67      67     23                  724      724     153
     Sum         265     265     91                 2891     2891     609


     Check: negative/imaginary core charge=   -0.000006    0.000000


     Dynamical matrices for ( 4, 4, 4)  uniform grid of q-points
     (   8q-points):
       N         xq(1)         xq(2)         xq(3) 
       1   0.000000000   0.000000000   0.000000000
       2  -0.250000000   0.250000000  -0.250000000
       3   0.500000000  -0.500000000   0.500000000
       4   0.000000000   0.500000000   0.000000000
       5   0.750000000  -0.250000000   0.750000000
       6   0.500000000   0.000000000   0.500000000
       7   0.000000000  -1.000000000   0.000000000
       8  -0.500000000  -1.000000000   0.000000000

     Calculation of q =    0.0000000   0.0000000   0.0000000

                                                                                

     bravais-lattice index     =            2
     lattice parameter (alat)  =      10.4080  a.u.
     unit-cell volume          =     281.8655 (a.u.)^3
     number of atoms/cell      =            2
     number of atomic types    =            1
     kinetic-energy cut-off    =      18.0000  Ry
     charge density cut-off    =      72.0000  Ry
     convergence threshold     =      1.0E-12
     beta                      =       0.7000
     number of iterations used =            4
     Exchange-correlation      = SLA  PW   PBE  PBE ( 1  4  3  4 0 0)


     celldm(1)=   10.40800  celldm(2)=    0.00000  celldm(3)=    0.00000
     celldm(4)=    0.00000  celldm(5)=    0.00000  celldm(6)=    0.00000

     crystal axes: (cart. coord. in units of alat)
               a(1) = ( -0.5000  0.0000  0.5000 )  
               a(2) = (  0.0000  0.5000  0.5000 )  
               a(3) = ( -0.5000  0.5000  0.0000 )  

     reciprocal axes: (cart. coord. in units 2 pi/alat)
               b(1) = ( -1.0000 -1.0000  1.0000 )  
               b(2) = (  1.0000  1.0000  1.0000 )  
               b(3) = ( -1.0000  1.0000 -1.0000 )  


     Atoms inside the unit cell: 

     Cartesian axes

     site n.  atom      mass           positions (alat units)
        1     Si  28.0860   tau(    1) = (    0.00000    0.00000    0.00000  )
        2     Si  28.0860   tau(    2) = (    0.25000    0.25000    0.25000  )

     Computing dynamical matrix for 
                    q = (   0.0000000   0.0000000   0.0000000 )

     49 Sym.Ops. (with q -> -q+G )


     G cutoff =  197.5638  (    722 G-vectors)     FFT grid: ( 20, 20, 20)
     number of k points=    10

     PseudoPot. # 1 for Si read from file:
     /home/max/quantum_espresso/qe-6.1/pseudo/si_pbe_v1.uspp.F.UPF.txt
     MD5 check sum: a056efeee980c13900f22a371efd63c1
     Pseudo is Ultrasoft + core correction, Zval =  4.0
     Generated by new atomic code, or converted to UPF format
     Using radial grid of  899 points,  6 beta functions with: 
                l(1) =   0
                l(2) =   0
                l(3) =   1
                l(4) =   1
                l(5) =   2
                l(6) =   2
     Q(r) pseudized with  8 coefficients,  rinner =    0.900   0.900   0.900
                                                       0.900   0.900

     Mode symmetry, O_h (m-3m)  point group:


     Electric field:
     Dielectric constant
     Born effective charges in two ways 


     Atomic displacements:
     There are   2 irreducible representations

     Representation     1      3 modes -T_2g G_25' G_5+  To be done

     Representation     2      3 modes -T_1u G_15  G_4-  To be done



     Alpha used in Ewald sum =   0.7000
     PHONON       :     0.40s CPU         0.41s WALL


     Electric Fields Calculation

      iter #   1 total cpu time :     0.8 secs   av.it.:   5.6
      thresh= 1.000E-02 alpha_mix =  0.700 |ddv_scf|^2 =  9.601E-07

      iter #   2 total cpu time :     1.0 secs   av.it.:   9.9
      thresh= 9.799E-05 alpha_mix =  0.700 |ddv_scf|^2 =  6.282E-08

      iter #   3 total cpu time :     1.3 secs   av.it.:   9.8
      thresh= 2.506E-05 alpha_mix =  0.700 |ddv_scf|^2 =  4.994E-09

      iter #   4 total cpu time :     1.5 secs   av.it.:   9.0
      thresh= 7.067E-06 alpha_mix =  0.700 |ddv_scf|^2 =  3.029E-11

      iter #   5 total cpu time :     1.7 secs   av.it.:   9.2
      thresh= 5.504E-07 alpha_mix =  0.700 |ddv_scf|^2 =  1.550E-14

     End of electric fields calculation

          Dielectric constant in cartesian axis 

          (      14.041560562      -0.000000000      -0.000000000 )
          (      -0.000000000      14.041560562       0.000000000 )
          (      -0.000000000       0.000000000      14.041560562 )

          Effective charges (d Force / dE) in cartesian axis

           atom      1   Si 
      Ex  (       -0.03341       -0.00000        0.00000 )
      Ey  (        0.00000       -0.03341       -0.00000 )
      Ez  (        0.00000       -0.00000       -0.03341 )
           atom      2   Si 
      Ex  (       -0.03341       -0.00000       -0.00000 )
      Ey  (       -0.00000       -0.03341        0.00000 )
      Ez  (       -0.00000        0.00000       -0.03341 )


     Representation #  1 modes #   1  2  3

     Self-consistent Calculation

      iter #   1 total cpu time :     2.1 secs   av.it.:   5.0
      thresh= 1.000E-02 alpha_mix =  0.700 |ddv_scf|^2 =  1.856E-07

      iter #   2 total cpu time :     2.2 secs   av.it.:  10.0
      thresh= 4.309E-05 alpha_mix =  0.700 |ddv_scf|^2 =  1.028E-08

      iter #   3 total cpu time :     2.4 secs   av.it.:   9.5
      thresh= 1.014E-05 alpha_mix =  0.700 |ddv_scf|^2 =  7.106E-10

      iter #   4 total cpu time :     2.6 secs   av.it.:   9.1
      thresh= 2.666E-06 alpha_mix =  0.700 |ddv_scf|^2 =  1.832E-12

      iter #   5 total cpu time :     2.8 secs   av.it.:   9.4
      thresh= 1.354E-07 alpha_mix =  0.700 |ddv_scf|^2 =  1.546E-14

     End of self-consistent calculation

     Convergence has been achieved 


     Representation #  2 modes #   4  5  6

     Self-consistent Calculation

      iter #   1 total cpu time :     3.0 secs   av.it.:   5.0
      thresh= 1.000E-02 alpha_mix =  0.700 |ddv_scf|^2 =  1.933E-07

      iter #   2 total cpu time :     3.4 secs   av.it.:   9.6
      thresh= 4.397E-05 alpha_mix =  0.700 |ddv_scf|^2 =  1.599E-08

      iter #   3 total cpu time :     3.5 secs   av.it.:   9.2
      thresh= 1.265E-05 alpha_mix =  0.700 |ddv_scf|^2 =  9.591E-10

      iter #   4 total cpu time :     3.7 secs   av.it.:   9.5
      thresh= 3.097E-06 alpha_mix =  0.700 |ddv_scf|^2 =  5.585E-12

      iter #   5 total cpu time :     3.9 secs   av.it.:   9.1
      thresh= 2.363E-07 alpha_mix =  0.700 |ddv_scf|^2 =  5.140E-15

     End of self-consistent calculation

     Convergence has been achieved 

     Number of q in the star =    1
     List of q in the star:
          1   0.000000000   0.000000000   0.000000000

          Dielectric constant in cartesian axis 

          (      14.041560562      -0.000000000      -0.000000000 )
          (      -0.000000000      14.041560562       0.000000000 )
          (      -0.000000000       0.000000000      14.041560562 )

          Effective charges (d Force / dE) in cartesian axis

           atom      1   Si 
      Ex  (       -0.03341       -0.00000        0.00000 )
      Ey  (        0.00000       -0.03341       -0.00000 )
      Ez  (        0.00000       -0.00000       -0.03341 )
           atom      2   Si 
      Ex  (       -0.03341       -0.00000       -0.00000 )
      Ey  (       -0.00000       -0.03341        0.00000 )
      Ez  (       -0.00000        0.00000       -0.03341 )

          Effective charges (d P / du) in cartesian axis 

           atom      1   Si 
      Px  (       -0.07613        0.00000       -0.00000 )
      Py  (        0.00000       -0.07613       -0.00000 )
      Pz  (       -0.00000       -0.00000       -0.07613 )
           atom      2   Si 
      Px  (       -0.07613       -0.00000       -0.00000 )
      Py  (        0.00000       -0.07613        0.00000 )
      Pz  (        0.00000        0.00000       -0.07613 )

     Diagonalizing the dynamical matrix

     q = (    0.000000000   0.000000000   0.000000000 ) 

 **************************************************************************
     freq (    1) =       1.761879 [THz] =      58.769974 [cm-1]
     freq (    2) =       1.761879 [THz] =      58.769974 [cm-1]
     freq (    3) =       1.761879 [THz] =      58.769974 [cm-1]
     freq (    4) =      15.541084 [THz] =     518.394749 [cm-1]
     freq (    5) =      15.541084 [THz] =     518.394749 [cm-1]
     freq (    6) =      15.541084 [THz] =     518.394749 [cm-1]
 **************************************************************************

     Mode symmetry, O_h (m-3m)  point group:

     freq (  1 -  3) =         58.8  [cm-1]   --> T_1u G_15  G_4- I  
     freq (  4 -  6) =        518.4  [cm-1]   --> T_2g G_25' G_5+ R  

     Calculation of q =   -0.2500000   0.2500000  -0.2500000

   Info: using nr1, nr2, nr3 values from input

   Info: using nr1, nr2, nr3 values from input

     Parallelization info
     --------------------
     sticks:   dense  smooth     PW     G-vecs:    dense   smooth      PW
     Min          66      66     27                  722      722     175
     Max          67      67     28                  724      724     176
     Sum         265     265    109                 2891     2891     701



     bravais-lattice index     =            2
     lattice parameter (alat)  =      10.4080  a.u.
     unit-cell volume          =     281.8655 (a.u.)^3
     number of atoms/cell      =            2
     number of atomic types    =            1
     number of electrons       =         8.00
     number of Kohn-Sham states=            4
     kinetic-energy cutoff     =      18.0000  Ry
     charge density cutoff     =      72.0000  Ry
     Exchange-correlation      = SLA  PW   PBE  PBE ( 1  4  3  4 0 0)

     celldm(1)=  10.408000  celldm(2)=   0.000000  celldm(3)=   0.000000
     celldm(4)=   0.000000  celldm(5)=   0.000000  celldm(6)=   0.000000

     crystal axes: (cart. coord. in units of alat)
               a(1) = (  -0.500000   0.000000   0.500000 )  
               a(2) = (   0.000000   0.500000   0.500000 )  
               a(3) = (  -0.500000   0.500000   0.000000 )  

     reciprocal axes: (cart. coord. in units 2 pi/alat)
               b(1) = ( -1.000000 -1.000000  1.000000 )  
               b(2) = (  1.000000  1.000000  1.000000 )  
               b(3) = ( -1.000000  1.000000 -1.000000 )  


     PseudoPot. # 1 for Si read from file:
     /home/max/quantum_espresso/qe-6.1/pseudo/si_pbe_v1.uspp.F.UPF.txt
     MD5 check sum: a056efeee980c13900f22a371efd63c1
     Pseudo is Ultrasoft + core correction, Zval =  4.0
     Generated by new atomic code, or converted to UPF format
     Using radial grid of  899 points,  6 beta functions with: 
                l(1) =   0
                l(2) =   0
                l(3) =   1
                l(4) =   1
                l(5) =   2
                l(6) =   2
     Q(r) pseudized with  8 coefficients,  rinner =    0.900   0.900   0.900
                                                       0.900   0.900

     atomic species   valence    mass     pseudopotential
        Si             4.00    28.08600     Si( 1.00)

     48 Sym. Ops., with inversion, found



   Cartesian axes

     site n.     atom                  positions (alat units)
         1           Si  tau(   1) = (   0.0000000   0.0000000   0.0000000  )
         2           Si  tau(   2) = (   0.2500000   0.2500000   0.2500000  )

     number of k points=   120

     Number of k-points >= 100: set verbosity='high' to print them.

     Dense  grid:     2891 G-vectors     FFT dimensions: (  20,  20,  20)

     Estimated max dynamical RAM per process >       0.33MB

     Estimated total allocated dynamical RAM >       1.33MB

     Check: negative/imaginary core charge=   -0.000006    0.000000

     The potential is recalculated from file :
     ./_ph0/silicon.10.408.save/charge-density.dat

     Starting wfc are    8 atomic wfcs

     Band Structure Calculation
     Davidson diagonalization with overlap

     ethr =  1.25E-10,  avg # of iterations = 11.7

     total cpu time spent up to now is        0.8 secs

     End of band structure calculation

     Number of k-points >= 100: set verbosity='high' to print the bands.

     highest occupied level (ev):     5.4875

     Writing output data file silicon.10.408.save

                                                                                

     bravais-lattice index     =            2
     lattice parameter (alat)  =      10.4080  a.u.
     unit-cell volume          =     281.8655 (a.u.)^3
     number of atoms/cell      =            2
     number of atomic types    =            1
     kinetic-energy cut-off    =      18.0000  Ry
     charge density cut-off    =      72.0000  Ry
     convergence threshold     =      1.0E-12
     beta                      =       0.7000
     number of iterations used =            4
     Exchange-correlation      = SLA  PW   PBE  PBE ( 1  4  3  4 0 0)


     celldm(1)=   10.40800  celldm(2)=    0.00000  celldm(3)=    0.00000
     celldm(4)=    0.00000  celldm(5)=    0.00000  celldm(6)=    0.00000

     crystal axes: (cart. coord. in units of alat)
               a(1) = ( -0.5000  0.0000  0.5000 )  
               a(2) = (  0.0000  0.5000  0.5000 )  
               a(3) = ( -0.5000  0.5000  0.0000 )  

     reciprocal axes: (cart. coord. in units 2 pi/alat)
               b(1) = ( -1.0000 -1.0000  1.0000 )  
               b(2) = (  1.0000  1.0000  1.0000 )  
               b(3) = ( -1.0000  1.0000 -1.0000 )  


     Atoms inside the unit cell: 

     Cartesian axes

     site n.  atom      mass           positions (alat units)
        1     Si  28.0860   tau(    1) = (    0.00000    0.00000    0.00000  )
        2     Si  28.0860   tau(    2) = (    0.25000    0.25000    0.25000  )

     Computing dynamical matrix for 
                    q = (  -0.2500000   0.2500000  -0.2500000 )

      6 Sym.Ops. (no q -> -q+G )


     G cutoff =  197.5638  (    722 G-vectors)     FFT grid: ( 20, 20, 20)
     number of k points=   120

     PseudoPot. # 1 for Si read from file:
     /home/max/quantum_espresso/qe-6.1/pseudo/si_pbe_v1.uspp.F.UPF.txt
     MD5 check sum: a056efeee980c13900f22a371efd63c1
     Pseudo is Ultrasoft + core correction, Zval =  4.0
     Generated by new atomic code, or converted to UPF format
     Using radial grid of  899 points,  6 beta functions with: 
                l(1) =   0
                l(2) =   0
                l(3) =   1
                l(4) =   1
                l(5) =   2
                l(6) =   2
     Q(r) pseudized with  8 coefficients,  rinner =    0.900   0.900   0.900
                                                       0.900   0.900

     Mode symmetry, C_3v (3m)   point group:


     Atomic displacements:
     There are   4 irreducible representations

     Representation     1      1 modes -A_1  L_1  To be done

     Representation     2      1 modes -A_1  L_1  To be done

     Representation     3      2 modes -E    L_3  To be done

     Representation     4      2 modes -E    L_3  To be done



     Alpha used in Ewald sum =   0.7000
     PHONON       :     5.02s CPU         5.32s WALL



     Representation #  1 mode #   1

     Self-consistent Calculation

      iter #   1 total cpu time :     5.5 secs   av.it.:   5.5
      thresh= 1.000E-02 alpha_mix =  0.700 |ddv_scf|^2 =  2.423E-03

      iter #   2 total cpu time :     5.8 secs   av.it.:   7.5
      thresh= 4.923E-03 alpha_mix =  0.700 |ddv_scf|^2 =  3.690E-02

      iter #   3 total cpu time :     6.0 secs   av.it.:   6.3
      thresh= 1.000E-02 alpha_mix =  0.700 |ddv_scf|^2 =  1.693E-06

      iter #   4 total cpu time :     6.3 secs   av.it.:   8.2
      thresh= 1.301E-04 alpha_mix =  0.700 |ddv_scf|^2 =  1.145E-07

      iter #   5 total cpu time :     6.5 secs   av.it.:   8.1
      thresh= 3.384E-05 alpha_mix =  0.700 |ddv_scf|^2 =  4.516E-09

      iter #   6 total cpu time :     6.8 secs   av.it.:   8.0
      thresh= 6.720E-06 alpha_mix =  0.700 |ddv_scf|^2 =  3.096E-09

      iter #   7 total cpu time :     7.0 secs   av.it.:   6.4
      thresh= 5.565E-06 alpha_mix =  0.700 |ddv_scf|^2 =  7.899E-10

      iter #   8 total cpu time :     7.4 secs   av.it.:   7.0
      thresh= 2.811E-06 alpha_mix =  0.700 |ddv_scf|^2 =  4.736E-12

      iter #   9 total cpu time :     7.7 secs   av.it.:   7.2
      thresh= 2.176E-07 alpha_mix =  0.700 |ddv_scf|^2 =  2.244E-13

     End of self-consistent calculation

     Convergence has been achieved 


     Representation #  2 mode #   2

     Self-consistent Calculation

      iter #   1 total cpu time :     7.9 secs   av.it.:   5.5
      thresh= 1.000E-02 alpha_mix =  0.700 |ddv_scf|^2 =  2.423E-03

      iter #   2 total cpu time :     8.1 secs   av.it.:   7.5
      thresh= 4.923E-03 alpha_mix =  0.700 |ddv_scf|^2 =  3.690E-02

      iter #   3 total cpu time :     8.4 secs   av.it.:   6.3
      thresh= 1.000E-02 alpha_mix =  0.700 |ddv_scf|^2 =  1.693E-06

      iter #   4 total cpu time :     8.6 secs   av.it.:   8.2
      thresh= 1.301E-04 alpha_mix =  0.700 |ddv_scf|^2 =  1.145E-07

      iter #   5 total cpu time :     8.9 secs   av.it.:   8.1
      thresh= 3.384E-05 alpha_mix =  0.700 |ddv_scf|^2 =  4.516E-09

      iter #   6 total cpu time :     9.3 secs   av.it.:   8.0
      thresh= 6.720E-06 alpha_mix =  0.700 |ddv_scf|^2 =  3.096E-09

      iter #   7 total cpu time :     9.6 secs   av.it.:   6.4
      thresh= 5.565E-06 alpha_mix =  0.700 |ddv_scf|^2 =  7.899E-10

      iter #   8 total cpu time :     9.8 secs   av.it.:   7.0
      thresh= 2.811E-06 alpha_mix =  0.700 |ddv_scf|^2 =  4.736E-12

      iter #   9 total cpu time :    10.0 secs   av.it.:   7.2
      thresh= 2.176E-07 alpha_mix =  0.700 |ddv_scf|^2 =  2.244E-13

     End of self-consistent calculation

     Convergence has been achieved 


     Representation #  3 modes #   3  4

     Self-consistent Calculation

      iter #   1 total cpu time :    10.4 secs   av.it.:   5.0
      thresh= 1.000E-02 alpha_mix =  0.700 |ddv_scf|^2 =  5.369E-07

      iter #   2 total cpu time :    11.0 secs   av.it.:   9.6
      thresh= 7.327E-05 alpha_mix =  0.700 |ddv_scf|^2 =  4.030E-08

      iter #   3 total cpu time :    11.8 secs   av.it.:   9.3
      thresh= 2.008E-05 alpha_mix =  0.700 |ddv_scf|^2 =  3.474E-09

      iter #   4 total cpu time :    12.4 secs   av.it.:   8.9
      thresh= 5.894E-06 alpha_mix =  0.700 |ddv_scf|^2 =  1.147E-11

      iter #   5 total cpu time :    12.9 secs   av.it.:   9.2
      thresh= 3.387E-07 alpha_mix =  0.700 |ddv_scf|^2 =  5.103E-13

     End of self-consistent calculation

     Convergence has been achieved 


     Representation #  4 modes #   5  6

     Self-consistent Calculation

      iter #   1 total cpu time :    13.5 secs   av.it.:   5.0
      thresh= 1.000E-02 alpha_mix =  0.700 |ddv_scf|^2 =  5.367E-07

      iter #   2 total cpu time :    14.1 secs   av.it.:   9.7
      thresh= 7.326E-05 alpha_mix =  0.700 |ddv_scf|^2 =  4.024E-08

      iter #   3 total cpu time :    14.7 secs   av.it.:   9.4
      thresh= 2.006E-05 alpha_mix =  0.700 |ddv_scf|^2 =  3.470E-09

      iter #   4 total cpu time :    15.4 secs   av.it.:   9.1
      thresh= 5.891E-06 alpha_mix =  0.700 |ddv_scf|^2 =  1.147E-11

      iter #   5 total cpu time :    16.0 secs   av.it.:   9.3
      thresh= 3.387E-07 alpha_mix =  0.700 |ddv_scf|^2 =  5.106E-13

     End of self-consistent calculation

     Convergence has been achieved 

     Number of q in the star =    8
     List of q in the star:
          1  -0.250000000   0.250000000  -0.250000000
          2   0.250000000  -0.250000000  -0.250000000
          3   0.250000000  -0.250000000   0.250000000
          4   0.250000000   0.250000000   0.250000000
          5  -0.250000000  -0.250000000  -0.250000000
          6  -0.250000000  -0.250000000   0.250000000
          7  -0.250000000   0.250000000   0.250000000
          8   0.250000000   0.250000000  -0.250000000

     Diagonalizing the dynamical matrix

     q = (   -0.250000000   0.250000000  -0.250000000 ) 

 **************************************************************************
     freq (    1) =       3.401946 [THz] =     113.476693 [cm-1]
     freq (    2) =       3.401946 [THz] =     113.476693 [cm-1]
     freq (    3) =       6.806148 [THz] =     227.028654 [cm-1]
     freq (    4) =      14.642514 [THz] =     488.421696 [cm-1]
     freq (    5) =      14.914922 [THz] =     497.508255 [cm-1]
     freq (    6) =      14.914922 [THz] =     497.508255 [cm-1]
 **************************************************************************

     Mode symmetry, C_3v (3m)   point group:

     freq (  1 -  2) =        113.5  [cm-1]   --> E    L_3           
     freq (  3 -  3) =        227.0  [cm-1]   --> A_1  L_1           
     freq (  4 -  4) =        488.4  [cm-1]   --> A_1  L_1           
     freq (  5 -  6) =        497.5  [cm-1]   --> E    L_3           

     Calculation of q =    0.5000000  -0.5000000   0.5000000

   Info: using nr1, nr2, nr3 values from input

   Info: using nr1, nr2, nr3 values from input

     Parallelization info
     --------------------
     sticks:   dense  smooth     PW     G-vecs:    dense   smooth      PW
     Min          66      66     27                  722      722     186
     Max          67      67     28                  724      724     189
     Sum         265     265    109                 2891     2891     749



     bravais-lattice index     =            2
     lattice parameter (alat)  =      10.4080  a.u.
     unit-cell volume          =     281.8655 (a.u.)^3
     number of atoms/cell      =            2
     number of atomic types    =            1
     number of electrons       =         8.00
     number of Kohn-Sham states=            4
     kinetic-energy cutoff     =      18.0000  Ry
     charge density cutoff     =      72.0000  Ry
     Exchange-correlation      = SLA  PW   PBE  PBE ( 1  4  3  4 0 0)

     celldm(1)=  10.408000  celldm(2)=   0.000000  celldm(3)=   0.000000
     celldm(4)=   0.000000  celldm(5)=   0.000000  celldm(6)=   0.000000

     crystal axes: (cart. coord. in units of alat)
               a(1) = (  -0.500000   0.000000   0.500000 )  
               a(2) = (   0.000000   0.500000   0.500000 )  
               a(3) = (  -0.500000   0.500000   0.000000 )  

     reciprocal axes: (cart. coord. in units 2 pi/alat)
               b(1) = ( -1.000000 -1.000000  1.000000 )  
               b(2) = (  1.000000  1.000000  1.000000 )  
               b(3) = ( -1.000000  1.000000 -1.000000 )  


     PseudoPot. # 1 for Si read from file:
     /home/max/quantum_espresso/qe-6.1/pseudo/si_pbe_v1.uspp.F.UPF.txt
     MD5 check sum: a056efeee980c13900f22a371efd63c1
     Pseudo is Ultrasoft + core correction, Zval =  4.0
     Generated by new atomic code, or converted to UPF format
     Using radial grid of  899 points,  6 beta functions with: 
                l(1) =   0
                l(2) =   0
                l(3) =   1
                l(4) =   1
                l(5) =   2
                l(6) =   2
     Q(r) pseudized with  8 coefficients,  rinner =    0.900   0.900   0.900
                                                       0.900   0.900

     atomic species   valence    mass     pseudopotential
        Si             4.00    28.08600     Si( 1.00)

     48 Sym. Ops., with inversion, found



   Cartesian axes

     site n.     atom                  positions (alat units)
         1           Si  tau(   1) = (   0.0000000   0.0000000   0.0000000  )
         2           Si  tau(   2) = (   0.2500000   0.2500000   0.2500000  )

     number of k points=    60
                       cart. coord. in units 2pi/alat
        k(    1) = (  -0.1250000   0.1250000   0.1250000), wk =   0.0468750
        k(    2) = (   0.3750000  -0.3750000   0.6250000), wk =   0.0000000
        k(    3) = (  -0.3750000   0.3750000  -0.1250000), wk =   0.0468750
        k(    4) = (   0.1250000  -0.1250000   0.3750000), wk =   0.0000000
        k(    5) = (   0.3750000  -0.3750000   0.6250000), wk =   0.0468750
        k(    6) = (   0.8750000  -0.8750000   1.1250000), wk =   0.0000000
        k(    7) = (   0.1250000  -0.1250000   0.3750000), wk =   0.0468750
        k(    8) = (   0.6250000  -0.6250000   0.8750000), wk =   0.0000000
        k(    9) = (  -0.1250000   0.6250000   0.1250000), wk =   0.0937500
        k(   10) = (   0.3750000   0.1250000   0.6250000), wk =   0.0000000
        k(   11) = (   0.6250000  -0.1250000   0.8750000), wk =   0.0937500
        k(   12) = (   1.1250000  -0.6250000   1.3750000), wk =   0.0000000
        k(   13) = (   0.3750000   0.1250000   0.6250000), wk =   0.0937500
        k(   14) = (   0.8750000  -0.3750000   1.1250000), wk =   0.0000000
        k(   15) = (  -0.1250000  -0.8750000   0.1250000), wk =   0.0937500
        k(   16) = (   0.3750000  -1.3750000   0.6250000), wk =   0.0000000
        k(   17) = (  -0.3750000   0.3750000   0.3750000), wk =   0.0468750
        k(   18) = (   0.1250000  -0.1250000   0.8750000), wk =   0.0000000
        k(   19) = (   0.3750000  -0.3750000   1.1250000), wk =   0.0468750
        k(   20) = (   0.8750000  -0.8750000   1.6250000), wk =   0.0000000
        k(   21) = (   0.1250000  -0.1250000   0.1250000), wk =   0.0156250
        k(   22) = (   0.6250000  -0.6250000   0.6250000), wk =   0.0000000
        k(   23) = (  -0.3750000  -0.3750000  -0.1250000), wk =   0.0937500
        k(   24) = (   0.1250000  -0.8750000   0.3750000), wk =   0.0000000
        k(   25) = (  -0.1250000  -0.3750000   0.3750000), wk =   0.0468750
        k(   26) = (   0.3750000  -0.8750000   0.8750000), wk =   0.0000000
        k(   27) = (   0.3750000   0.3750000   0.6250000), wk =   0.0937500
        k(   28) = (   0.8750000  -0.1250000   1.1250000), wk =   0.0000000
        k(   29) = (   0.6250000   0.3750000  -0.3750000), wk =   0.0468750
        k(   30) = (   1.1250000  -0.1250000   0.1250000), wk =   0.0000000
        k(   31) = (   0.1250000   0.1250000   0.3750000), wk =   0.0937500
        k(   32) = (   0.6250000  -0.3750000   0.8750000), wk =   0.0000000
        k(   33) = (   0.3750000   0.1250000  -0.1250000), wk =   0.0468750
        k(   34) = (   0.8750000  -0.3750000   0.3750000), wk =   0.0000000
        k(   35) = (  -0.1250000  -0.6250000  -0.1250000), wk =   0.0468750
        k(   36) = (   0.3750000  -1.1250000   0.3750000), wk =   0.0000000
        k(   37) = (   0.1250000  -0.6250000   0.1250000), wk =   0.0468750
        k(   38) = (   0.6250000  -1.1250000   0.6250000), wk =   0.0000000
        k(   39) = (   0.6250000   0.1250000   0.8750000), wk =   0.0937500
        k(   40) = (   1.1250000  -0.3750000   1.3750000), wk =   0.0000000
        k(   41) = (  -0.8750000   0.1250000   0.6250000), wk =   0.0937500
        k(   42) = (  -0.3750000  -0.3750000   1.1250000), wk =   0.0000000
        k(   43) = (   0.8750000   0.1250000  -0.6250000), wk =   0.0937500
        k(   44) = (   1.3750000  -0.3750000  -0.1250000), wk =   0.0000000
        k(   45) = (   0.3750000  -0.1250000   0.6250000), wk =   0.0937500
        k(   46) = (   0.8750000  -0.6250000   1.1250000), wk =   0.0000000
        k(   47) = (  -0.6250000  -0.1250000   0.3750000), wk =   0.0937500
        k(   48) = (  -0.1250000  -0.6250000   0.8750000), wk =   0.0000000
        k(   49) = (   0.6250000  -0.1250000  -0.3750000), wk =   0.0937500
        k(   50) = (   1.1250000  -0.6250000   0.1250000), wk =   0.0000000
        k(   51) = (  -0.1250000   0.8750000  -0.1250000), wk =   0.0468750
        k(   52) = (   0.3750000   0.3750000   0.3750000), wk =   0.0000000
        k(   53) = (   0.1250000   0.8750000   0.1250000), wk =   0.0468750
        k(   54) = (   0.6250000   0.3750000   0.6250000), wk =   0.0000000
        k(   55) = (   0.3750000  -0.3750000   0.3750000), wk =   0.0156250
        k(   56) = (   0.8750000  -0.8750000   0.8750000), wk =   0.0000000
        k(   57) = (   0.3750000   0.3750000   1.1250000), wk =   0.0937500
        k(   58) = (   0.8750000  -0.1250000   1.6250000), wk =   0.0000000
        k(   59) = (   1.1250000   0.3750000  -0.3750000), wk =   0.0468750
        k(   60) = (   1.6250000  -0.1250000   0.1250000), wk =   0.0000000

     Dense  grid:     2891 G-vectors     FFT dimensions: (  20,  20,  20)

     Estimated max dynamical RAM per process >       0.33MB

     Estimated total allocated dynamical RAM >       1.33MB

     Check: negative/imaginary core charge=   -0.000006    0.000000

     The potential is recalculated from file :
     ./_ph0/silicon.10.408.save/charge-density.dat

     Starting wfc are    8 atomic wfcs

     Band Structure Calculation
     Davidson diagonalization with overlap

     ethr =  1.25E-10,  avg # of iterations = 11.7

     total cpu time spent up to now is        1.3 secs

     End of band structure calculation

          k =-0.1250 0.1250 0.1250 (   353 PWs)   bands (ev):

    -5.7091   4.1760   5.4875   5.4875

          k = 0.3750-0.3750 0.6250 (   364 PWs)   bands (ev):

    -3.5983  -0.8057   3.5519   4.2590

          k =-0.3750 0.3750-0.1250 (   362 PWs)   bands (ev):

    -4.7051   1.2202   3.5432   5.0112

          k = 0.1250-0.1250 0.3750 (   358 PWs)   bands (ev):

    -5.1921   2.5677   4.5034   4.5547

          k = 0.3750-0.3750 0.6250 (   364 PWs)   bands (ev):

    -3.5983  -0.8057   3.5519   4.2590

          k = 0.8750-0.8750 1.1250 (   353 PWs)   bands (ev):

    -5.7091   4.1760   5.4875   5.4875

          k = 0.1250-0.1250 0.3750 (   358 PWs)   bands (ev):

    -5.1921   2.5677   4.5034   4.5547

          k = 0.6250-0.6250 0.8750 (   362 PWs)   bands (ev):

    -4.7051   1.2202   3.5432   5.0112

          k =-0.1250 0.6250 0.1250 (   357 PWs)   bands (ev):

    -4.1826   0.8631   3.2076   3.6467

          k = 0.3750 0.1250 0.6250 (   365 PWs)   bands (ev):

    -3.7793   0.0215   2.5769   3.9172

          k = 0.6250-0.1250 0.8750 (   368 PWs)   bands (ev):

    -2.5851  -1.0661   1.8958   2.9428

          k = 1.1250-0.6250 1.3750 (   362 PWs)   bands (ev):

    -4.7051   1.2202   3.5432   5.0112

          k = 0.3750 0.1250 0.6250 (   365 PWs)   bands (ev):

    -3.7793   0.0215   2.5769   3.9172

          k = 0.8750-0.3750 1.1250 (   357 PWs)   bands (ev):

    -4.1826   0.8631   3.2076   3.6467

          k =-0.1250-0.8750 0.1250 (   364 PWs)   bands (ev):

    -2.7425  -0.9737   2.4870   3.1884

          k = 0.3750-1.3750 0.6250 (   364 PWs)   bands (ev):

    -3.5983  -0.8057   3.5519   4.2590

          k =-0.3750 0.3750 0.3750 (   359 PWs)   bands (ev):

    -4.2841  -0.0321   4.7111   4.7111

          k = 0.1250-0.1250 0.8750 (   364 PWs)   bands (ev):

    -2.7425  -0.9737   2.4870   3.1884

          k = 0.3750-0.3750 1.1250 (   369 PWs)   bands (ev):

    -3.1125  -0.7495   1.9436   3.9502

          k = 0.8750-0.8750 1.6250 (   357 PWs)   bands (ev):

    -4.1826   0.8631   3.2076   3.6467

          k = 0.1250-0.1250 0.1250 (   353 PWs)   bands (ev):

    -5.7091   4.1760   5.4875   5.4875

          k = 0.6250-0.6250 0.6250 (   359 PWs)   bands (ev):

    -4.2841  -0.0321   4.7111   4.7111

          k =-0.3750-0.3750-0.1250 (   362 PWs)   bands (ev):

    -4.7051   1.2202   3.5432   5.0112

          k = 0.1250-0.8750 0.3750 (   368 PWs)   bands (ev):

    -2.5851  -1.0661   1.8958   2.9428

          k =-0.1250-0.3750 0.3750 (   362 PWs)   bands (ev):

    -4.7051   1.2202   3.5432   5.0112

          k = 0.3750-0.8750 0.8750 (   357 PWs)   bands (ev):

    -4.1826   0.8631   3.2076   3.6467

          k = 0.3750 0.3750 0.6250 (   364 PWs)   bands (ev):

    -3.5983  -0.8057   3.5519   4.2590

          k = 0.8750-0.1250 1.1250 (   364 PWs)   bands (ev):

    -2.7425  -0.9737   2.4870   3.1884

          k = 0.6250 0.3750-0.3750 (   364 PWs)   bands (ev):

    -3.5983  -0.8057   3.5519   4.2590

          k = 1.1250-0.1250 0.1250 (   364 PWs)   bands (ev):

    -2.7425  -0.9737   2.4870   3.1884

          k = 0.1250 0.1250 0.3750 (   358 PWs)   bands (ev):

    -5.1921   2.5677   4.5034   4.5547

          k = 0.6250-0.3750 0.8750 (   365 PWs)   bands (ev):

    -3.7793   0.0215   2.5769   3.9172

          k = 0.3750 0.1250-0.1250 (   358 PWs)   bands (ev):

    -5.1921   2.5677   4.5034   4.5547

          k = 0.8750-0.3750 0.3750 (   369 PWs)   bands (ev):

    -3.1125  -0.7495   1.9436   3.9502

          k =-0.1250-0.6250-0.1250 (   357 PWs)   bands (ev):

    -4.1826   0.8631   3.2076   3.6467

          k = 0.3750-1.1250 0.3750 (   369 PWs)   bands (ev):

    -3.1125  -0.7495   1.9436   3.9502

          k = 0.1250-0.6250 0.1250 (   357 PWs)   bands (ev):

    -4.1826   0.8631   3.2076   3.6467

          k = 0.6250-1.1250 0.6250 (   362 PWs)   bands (ev):

    -4.7051   1.2202   3.5432   5.0112

          k = 0.6250 0.1250 0.8750 (   368 PWs)   bands (ev):

    -2.5851  -1.0661   1.8958   2.9428

          k = 1.1250-0.3750 1.3750 (   365 PWs)   bands (ev):

    -3.7793   0.0215   2.5769   3.9172

          k =-0.8750 0.1250 0.6250 (   368 PWs)   bands (ev):

    -2.5851  -1.0661   1.8958   2.9428

          k =-0.3750-0.3750 1.1250 (   369 PWs)   bands (ev):

    -3.1125  -0.7495   1.9436   3.9502

          k = 0.8750 0.1250-0.6250 (   368 PWs)   bands (ev):

    -2.5851  -1.0661   1.8958   2.9428

          k = 1.3750-0.3750-0.1250 (   365 PWs)   bands (ev):

    -3.7793   0.0215   2.5769   3.9172

          k = 0.3750-0.1250 0.6250 (   365 PWs)   bands (ev):

    -3.7793   0.0215   2.5769   3.9172

          k = 0.8750-0.6250 1.1250 (   358 PWs)   bands (ev):

    -5.1921   2.5677   4.5034   4.5547

          k =-0.6250-0.1250 0.3750 (   365 PWs)   bands (ev):

    -3.7793   0.0215   2.5769   3.9172

          k =-0.1250-0.6250 0.8750 (   368 PWs)   bands (ev):

    -2.5851  -1.0661   1.8958   2.9428

          k = 0.6250-0.1250-0.3750 (   365 PWs)   bands (ev):

    -3.7793   0.0215   2.5769   3.9172

          k = 1.1250-0.6250 0.1250 (   368 PWs)   bands (ev):

    -2.5851  -1.0661   1.8958   2.9428

          k =-0.1250 0.8750-0.1250 (   364 PWs)   bands (ev):

    -2.7425  -0.9737   2.4870   3.1884

          k = 0.3750 0.3750 0.3750 (   359 PWs)   bands (ev):

    -4.2841  -0.0321   4.7111   4.7111

          k = 0.1250 0.8750 0.1250 (   364 PWs)   bands (ev):

    -2.7425  -0.9737   2.4870   3.1884

          k = 0.6250 0.3750 0.6250 (   364 PWs)   bands (ev):

    -3.5983  -0.8057   3.5519   4.2590

          k = 0.3750-0.3750 0.3750 (   359 PWs)   bands (ev):

    -4.2841  -0.0321   4.7111   4.7111

          k = 0.8750-0.8750 0.8750 (   353 PWs)   bands (ev):

    -5.7091   4.1760   5.4875   5.4875

          k = 0.3750 0.3750 1.1250 (   369 PWs)   bands (ev):

    -3.1125  -0.7495   1.9436   3.9502

          k = 0.8750-0.1250 1.6250 (   368 PWs)   bands (ev):

    -2.5851  -1.0661   1.8958   2.9428

          k = 1.1250 0.3750-0.3750 (   369 PWs)   bands (ev):

    -3.1125  -0.7495   1.9436   3.9502

          k = 1.6250-0.1250 0.1250 (   358 PWs)   bands (ev):

    -5.1921   2.5677   4.5034   4.5547

     highest occupied level (ev):     5.4875

     Writing output data file silicon.10.408.save

                                                                                

     bravais-lattice index     =            2
     lattice parameter (alat)  =      10.4080  a.u.
     unit-cell volume          =     281.8655 (a.u.)^3
     number of atoms/cell      =            2
     number of atomic types    =            1
     kinetic-energy cut-off    =      18.0000  Ry
     charge density cut-off    =      72.0000  Ry
     convergence threshold     =      1.0E-12
     beta                      =       0.7000
     number of iterations used =            4
     Exchange-correlation      = SLA  PW   PBE  PBE ( 1  4  3  4 0 0)


     celldm(1)=   10.40800  celldm(2)=    0.00000  celldm(3)=    0.00000
     celldm(4)=    0.00000  celldm(5)=    0.00000  celldm(6)=    0.00000

     crystal axes: (cart. coord. in units of alat)
               a(1) = ( -0.5000  0.0000  0.5000 )  
               a(2) = (  0.0000  0.5000  0.5000 )  
               a(3) = ( -0.5000  0.5000  0.0000 )  

     reciprocal axes: (cart. coord. in units 2 pi/alat)
               b(1) = ( -1.0000 -1.0000  1.0000 )  
               b(2) = (  1.0000  1.0000  1.0000 )  
               b(3) = ( -1.0000  1.0000 -1.0000 )  


     Atoms inside the unit cell: 

     Cartesian axes

     site n.  atom      mass           positions (alat units)
        1     Si  28.0860   tau(    1) = (    0.00000    0.00000    0.00000  )
        2     Si  28.0860   tau(    2) = (    0.25000    0.25000    0.25000  )

     Computing dynamical matrix for 
                    q = (   0.5000000  -0.5000000   0.5000000 )

     13 Sym.Ops. (with q -> -q+G )


     G cutoff =  197.5638  (    722 G-vectors)     FFT grid: ( 20, 20, 20)
     number of k points=    60

     PseudoPot. # 1 for Si read from file:
     /home/max/quantum_espresso/qe-6.1/pseudo/si_pbe_v1.uspp.F.UPF.txt
     MD5 check sum: a056efeee980c13900f22a371efd63c1
     Pseudo is Ultrasoft + core correction, Zval =  4.0
     Generated by new atomic code, or converted to UPF format
     Using radial grid of  899 points,  6 beta functions with: 
                l(1) =   0
                l(2) =   0
                l(3) =   1
                l(4) =   1
                l(5) =   2
                l(6) =   2
     Q(r) pseudized with  8 coefficients,  rinner =    0.900   0.900   0.900
                                                       0.900   0.900


     Atomic displacements:
     There are   4 irreducible representations

     Representation     1      1 modes -  To be done

     Representation     2      1 modes -  To be done

     Representation     3      2 modes -  To be done

     Representation     4      2 modes -  To be done



     Alpha used in Ewald sum =   0.7000
     PHONON       :    15.66s CPU        16.75s WALL



     Representation #  1 mode #   1

     Self-consistent Calculation

      iter #   1 total cpu time :    16.9 secs   av.it.:   4.8
      thresh= 1.000E-02 alpha_mix =  0.700 |ddv_scf|^2 =  2.425E-05

      iter #   2 total cpu time :    17.0 secs   av.it.:   8.4
      thresh= 4.925E-04 alpha_mix =  0.700 |ddv_scf|^2 =  2.221E-05

      iter #   3 total cpu time :    17.3 secs   av.it.:   7.5
      thresh= 4.712E-04 alpha_mix =  0.700 |ddv_scf|^2 =  3.830E-08

      iter #   4 total cpu time :    17.4 secs   av.it.:   7.6
      thresh= 1.957E-05 alpha_mix =  0.700 |ddv_scf|^2 =  1.413E-10

      iter #   5 total cpu time :    17.6 secs   av.it.:   7.9
      thresh= 1.189E-06 alpha_mix =  0.700 |ddv_scf|^2 =  4.085E-12

      iter #   6 total cpu time :    17.7 secs   av.it.:   7.7
      thresh= 2.021E-07 alpha_mix =  0.700 |ddv_scf|^2 =  7.415E-14

     End of self-consistent calculation

     Convergence has been achieved 


     Representation #  2 mode #   2

     Self-consistent Calculation

      iter #   1 total cpu time :    17.9 secs   av.it.:   5.7
      thresh= 1.000E-02 alpha_mix =  0.700 |ddv_scf|^2 =  3.401E-04

      iter #   2 total cpu time :    18.0 secs   av.it.:   8.3
      thresh= 1.844E-03 alpha_mix =  0.700 |ddv_scf|^2 =  1.052E-03

      iter #   3 total cpu time :    18.1 secs   av.it.:   7.1
      thresh= 3.244E-03 alpha_mix =  0.700 |ddv_scf|^2 =  1.452E-07

      iter #   4 total cpu time :    18.3 secs   av.it.:   8.2
      thresh= 3.811E-05 alpha_mix =  0.700 |ddv_scf|^2 =  1.002E-08

      iter #   5 total cpu time :    18.4 secs   av.it.:   8.4
      thresh= 1.001E-05 alpha_mix =  0.700 |ddv_scf|^2 =  1.562E-10

      iter #   6 total cpu time :    18.6 secs   av.it.:   8.2
      thresh= 1.250E-06 alpha_mix =  0.700 |ddv_scf|^2 =  3.741E-12

      iter #   7 total cpu time :    18.7 secs   av.it.:   7.6
      thresh= 1.934E-07 alpha_mix =  0.700 |ddv_scf|^2 =  1.514E-14

     End of self-consistent calculation

     Convergence has been achieved 


     Representation #  3 modes #   3  4

     Self-consistent Calculation

      iter #   1 total cpu time :    18.9 secs   av.it.:   4.7
      thresh= 1.000E-02 alpha_mix =  0.700 |ddv_scf|^2 =  3.427E-07

      iter #   2 total cpu time :    19.4 secs   av.it.:   9.0
      thresh= 5.854E-05 alpha_mix =  0.700 |ddv_scf|^2 =  2.958E-08

      iter #   3 total cpu time :    19.7 secs   av.it.:   8.4
      thresh= 1.720E-05 alpha_mix =  0.700 |ddv_scf|^2 =  5.131E-10

      iter #   4 total cpu time :    20.0 secs   av.it.:   8.9
      thresh= 2.265E-06 alpha_mix =  0.700 |ddv_scf|^2 =  6.460E-12

      iter #   5 total cpu time :    20.2 secs   av.it.:   8.7
      thresh= 2.542E-07 alpha_mix =  0.700 |ddv_scf|^2 =  3.610E-14

     End of self-consistent calculation

     Convergence has been achieved 


     Representation #  4 modes #   5  6

     Self-consistent Calculation

      iter #   1 total cpu time :    20.5 secs   av.it.:   5.0
      thresh= 1.000E-02 alpha_mix =  0.700 |ddv_scf|^2 =  9.423E-07

      iter #   2 total cpu time :    20.8 secs   av.it.:   9.5
      thresh= 9.707E-05 alpha_mix =  0.700 |ddv_scf|^2 =  7.494E-08

      iter #   3 total cpu time :    21.2 secs   av.it.:   9.3
      thresh= 2.738E-05 alpha_mix =  0.700 |ddv_scf|^2 =  4.493E-09

      iter #   4 total cpu time :    21.5 secs   av.it.:   8.5
      thresh= 6.703E-06 alpha_mix =  0.700 |ddv_scf|^2 =  6.559E-12

      iter #   5 total cpu time :    21.8 secs   av.it.:   8.8
      thresh= 2.561E-07 alpha_mix =  0.700 |ddv_scf|^2 =  2.578E-14

     End of self-consistent calculation

     Convergence has been achieved 

     Number of q in the star =    4
     List of q in the star:
          1   0.500000000  -0.500000000   0.500000000
          2   0.500000000   0.500000000   0.500000000
          3  -0.500000000   0.500000000   0.500000000
          4   0.500000000   0.500000000  -0.500000000

     Diagonalizing the dynamical matrix

     q = (    0.500000000  -0.500000000   0.500000000 ) 

 **************************************************************************
     freq (    1) =       5.113233 [THz] =     170.559105 [cm-1]
     freq (    2) =       5.113233 [THz] =     170.559105 [cm-1]
     freq (    3) =      11.880348 [THz] =     396.285769 [cm-1]
     freq (    4) =      12.177682 [THz] =     406.203738 [cm-1]
     freq (    5) =      14.680238 [THz] =     489.680038 [cm-1]
     freq (    6) =      14.680238 [THz] =     489.680038 [cm-1]
 **************************************************************************

     Calculation of q =    0.0000000   0.5000000   0.0000000

   Info: using nr1, nr2, nr3 values from input

   Info: using nr1, nr2, nr3 values from input

     Parallelization info
     --------------------
     sticks:   dense  smooth     PW     G-vecs:    dense   smooth      PW
     Min          66      66     27                  722      722     181
     Max          67      67     28                  724      724     182
     Sum         265     265    109                 2891     2891     725



     bravais-lattice index     =            2
     lattice parameter (alat)  =      10.4080  a.u.
     unit-cell volume          =     281.8655 (a.u.)^3
     number of atoms/cell      =            2
     number of atomic types    =            1
     number of electrons       =         8.00
     number of Kohn-Sham states=            4
     kinetic-energy cutoff     =      18.0000  Ry
     charge density cutoff     =      72.0000  Ry
     Exchange-correlation      = SLA  PW   PBE  PBE ( 1  4  3  4 0 0)

     celldm(1)=  10.408000  celldm(2)=   0.000000  celldm(3)=   0.000000
     celldm(4)=   0.000000  celldm(5)=   0.000000  celldm(6)=   0.000000

     crystal axes: (cart. coord. in units of alat)
               a(1) = (  -0.500000   0.000000   0.500000 )  
               a(2) = (   0.000000   0.500000   0.500000 )  
               a(3) = (  -0.500000   0.500000   0.000000 )  

     reciprocal axes: (cart. coord. in units 2 pi/alat)
               b(1) = ( -1.000000 -1.000000  1.000000 )  
               b(2) = (  1.000000  1.000000  1.000000 )  
               b(3) = ( -1.000000  1.000000 -1.000000 )  


     PseudoPot. # 1 for Si read from file:
     /home/max/quantum_espresso/qe-6.1/pseudo/si_pbe_v1.uspp.F.UPF.txt
     MD5 check sum: a056efeee980c13900f22a371efd63c1
     Pseudo is Ultrasoft + core correction, Zval =  4.0
     Generated by new atomic code, or converted to UPF format
     Using radial grid of  899 points,  6 beta functions with: 
                l(1) =   0
                l(2) =   0
                l(3) =   1
                l(4) =   1
                l(5) =   2
                l(6) =   2
     Q(r) pseudized with  8 coefficients,  rinner =    0.900   0.900   0.900
                                                       0.900   0.900

     atomic species   valence    mass     pseudopotential
        Si             4.00    28.08600     Si( 1.00)

     48 Sym. Ops., with inversion, found



   Cartesian axes

     site n.     atom                  positions (alat units)
         1           Si  tau(   1) = (   0.0000000   0.0000000   0.0000000  )
         2           Si  tau(   2) = (   0.2500000   0.2500000   0.2500000  )

     number of k points=    80
                       cart. coord. in units 2pi/alat
        k(    1) = (  -0.1250000   0.1250000   0.1250000), wk =   0.0312500
        k(    2) = (  -0.1250000   0.6250000   0.1250000), wk =   0.0000000
        k(    3) = (  -0.3750000   0.3750000  -0.1250000), wk =   0.0625000
        k(    4) = (  -0.3750000   0.8750000  -0.1250000), wk =   0.0000000
        k(    5) = (   0.3750000  -0.3750000   0.6250000), wk =   0.0625000
        k(    6) = (   0.3750000   0.1250000   0.6250000), wk =   0.0000000
        k(    7) = (   0.1250000  -0.1250000   0.3750000), wk =   0.0625000
        k(    8) = (   0.1250000   0.3750000   0.3750000), wk =   0.0000000
        k(    9) = (  -0.1250000   0.6250000   0.1250000), wk =   0.0312500
        k(   10) = (  -0.1250000   1.1250000   0.1250000), wk =   0.0000000
        k(   11) = (   0.6250000  -0.1250000   0.8750000), wk =   0.0625000
        k(   12) = (   0.6250000   0.3750000   0.8750000), wk =   0.0000000
        k(   13) = (   0.3750000   0.1250000   0.6250000), wk =   0.0625000
        k(   14) = (   0.3750000   0.6250000   0.6250000), wk =   0.0000000
        k(   15) = (  -0.1250000  -0.8750000   0.1250000), wk =   0.0312500
        k(   16) = (  -0.1250000  -0.3750000   0.1250000), wk =   0.0000000
        k(   17) = (  -0.3750000   0.3750000   0.3750000), wk =   0.0312500
        k(   18) = (  -0.3750000   0.8750000   0.3750000), wk =   0.0000000
        k(   19) = (   0.3750000  -0.3750000   1.1250000), wk =   0.0625000
        k(   20) = (   0.3750000   0.1250000   1.1250000), wk =   0.0000000
        k(   21) = (  -0.1250000  -0.1250000   0.1250000), wk =   0.0312500
        k(   22) = (  -0.1250000   0.3750000   0.1250000), wk =   0.0000000
        k(   23) = (   0.1250000  -0.3750000   0.3750000), wk =   0.0625000
        k(   24) = (   0.1250000   0.1250000   0.3750000), wk =   0.0000000
        k(   25) = (   0.3750000  -0.1250000   0.3750000), wk =   0.0312500
        k(   26) = (   0.3750000   0.3750000   0.3750000), wk =   0.0000000
        k(   27) = (   0.3750000   0.1250000   0.3750000), wk =   0.0312500
        k(   28) = (   0.3750000   0.6250000   0.3750000), wk =   0.0000000
        k(   29) = (  -0.6250000   0.3750000  -0.3750000), wk =   0.0625000
        k(   30) = (  -0.6250000   0.8750000  -0.3750000), wk =   0.0000000
        k(   31) = (  -0.3750000   0.6250000  -0.3750000), wk =   0.0312500
        k(   32) = (  -0.3750000   1.1250000  -0.3750000), wk =   0.0000000
        k(   33) = (  -0.3750000  -0.6250000  -0.3750000), wk =   0.0312500
        k(   34) = (  -0.3750000  -0.1250000  -0.3750000), wk =   0.0000000
        k(   35) = (  -0.3750000   0.1250000  -0.1250000), wk =   0.0625000
        k(   36) = (  -0.3750000   0.6250000  -0.1250000), wk =   0.0000000
        k(   37) = (  -0.1250000   0.3750000  -0.1250000), wk =   0.0312500
        k(   38) = (  -0.1250000   0.8750000  -0.1250000), wk =   0.0000000
        k(   39) = (  -0.1250000  -0.3750000  -0.1250000), wk =   0.0312500
        k(   40) = (  -0.1250000   0.1250000  -0.1250000), wk =   0.0000000
        k(   41) = (  -0.1250000  -0.6250000   0.1250000), wk =   0.0312500
        k(   42) = (  -0.1250000  -0.1250000   0.1250000), wk =   0.0000000
        k(   43) = (   0.6250000  -0.1250000  -0.1250000), wk =   0.0625000
        k(   44) = (   0.6250000   0.3750000  -0.1250000), wk =   0.0000000
        k(   45) = (   0.6250000   0.1250000   0.1250000), wk =   0.0625000
        k(   46) = (   0.6250000   0.6250000   0.1250000), wk =   0.0000000
        k(   47) = (  -0.8750000   0.1250000  -0.6250000), wk =   0.0625000
        k(   48) = (  -0.8750000   0.6250000  -0.6250000), wk =   0.0000000
        k(   49) = (  -0.1250000   0.6250000  -0.8750000), wk =   0.0625000
        k(   50) = (  -0.1250000   1.1250000  -0.8750000), wk =   0.0000000
        k(   51) = (  -0.1250000   0.8750000  -0.6250000), wk =   0.0625000
        k(   52) = (  -0.1250000   1.3750000  -0.6250000), wk =   0.0000000
        k(   53) = (  -0.1250000  -0.8750000  -0.6250000), wk =   0.0625000
        k(   54) = (  -0.1250000  -0.3750000  -0.6250000), wk =   0.0000000
        k(   55) = (   0.8750000  -0.6250000   0.1250000), wk =   0.0625000
        k(   56) = (   0.8750000  -0.1250000   0.1250000), wk =   0.0000000
        k(   57) = (  -0.6250000  -0.1250000  -0.3750000), wk =   0.0625000
        k(   58) = (  -0.6250000   0.3750000  -0.3750000), wk =   0.0000000
        k(   59) = (   0.1250000   0.3750000  -0.6250000), wk =   0.0625000
        k(   60) = (   0.1250000   0.8750000  -0.6250000), wk =   0.0000000
        k(   61) = (   0.1250000   0.6250000  -0.3750000), wk =   0.0625000
        k(   62) = (   0.1250000   1.1250000  -0.3750000), wk =   0.0000000
        k(   63) = (   0.1250000  -0.6250000  -0.3750000), wk =   0.0625000
        k(   64) = (   0.1250000  -0.1250000  -0.3750000), wk =   0.0000000
        k(   65) = (   0.6250000  -0.3750000  -0.1250000), wk =   0.0625000
        k(   66) = (   0.6250000   0.1250000  -0.1250000), wk =   0.0000000
        k(   67) = (  -0.1250000   0.8750000   0.1250000), wk =   0.0312500
        k(   68) = (  -0.1250000   1.3750000   0.1250000), wk =   0.0000000
        k(   69) = (  -0.8750000  -0.1250000  -0.1250000), wk =   0.0625000
        k(   70) = (  -0.8750000   0.3750000  -0.1250000), wk =   0.0000000
        k(   71) = (  -0.8750000   0.1250000   0.1250000), wk =   0.0625000
        k(   72) = (  -0.8750000   0.6250000   0.1250000), wk =   0.0000000
        k(   73) = (  -0.3750000  -0.3750000   0.3750000), wk =   0.0312500
        k(   74) = (  -0.3750000   0.1250000   0.3750000), wk =   0.0000000
        k(   75) = (  -1.1250000   0.3750000  -0.3750000), wk =   0.0625000
        k(   76) = (  -1.1250000   0.8750000  -0.3750000), wk =   0.0000000
        k(   77) = (  -0.3750000   1.1250000  -0.3750000), wk =   0.0312500
        k(   78) = (  -0.3750000   1.6250000  -0.3750000), wk =   0.0000000
        k(   79) = (  -0.3750000  -1.1250000  -0.3750000), wk =   0.0312500
        k(   80) = (  -0.3750000  -0.6250000  -0.3750000), wk =   0.0000000

     Dense  grid:     2891 G-vectors     FFT dimensions: (  20,  20,  20)

     Estimated max dynamical RAM per process >       0.33MB

     Estimated total allocated dynamical RAM >       1.33MB

     Check: negative/imaginary core charge=   -0.000006    0.000000

     The potential is recalculated from file :
     ./_ph0/silicon.10.408.save/charge-density.dat

     Starting wfc are    8 atomic wfcs

     Band Structure Calculation
     Davidson diagonalization with overlap

     ethr =  1.25E-10,  avg # of iterations = 11.7

     total cpu time spent up to now is        1.9 secs

     End of band structure calculation

          k =-0.1250 0.1250 0.1250 (   353 PWs)   bands (ev):

    -5.7091   4.1760   5.4875   5.4875

          k =-0.1250 0.6250 0.1250 (   357 PWs)   bands (ev):

    -4.1826   0.8631   3.2076   3.6467

          k =-0.3750 0.3750-0.1250 (   362 PWs)   bands (ev):

    -4.7051   1.2202   3.5432   5.0112

          k =-0.3750 0.8750-0.1250 (   368 PWs)   bands (ev):

    -2.5851  -1.0661   1.8958   2.9428

          k = 0.3750-0.3750 0.6250 (   364 PWs)   bands (ev):

    -3.5983  -0.8057   3.5519   4.2590

          k = 0.3750 0.1250 0.6250 (   365 PWs)   bands (ev):

    -3.7793   0.0215   2.5769   3.9172

          k = 0.1250-0.1250 0.3750 (   358 PWs)   bands (ev):

    -5.1921   2.5677   4.5034   4.5547

          k = 0.1250 0.3750 0.3750 (   362 PWs)   bands (ev):

    -4.7051   1.2202   3.5432   5.0112

          k =-0.1250 0.6250 0.1250 (   357 PWs)   bands (ev):

    -4.1826   0.8631   3.2076   3.6467

          k =-0.1250 1.1250 0.1250 (   364 PWs)   bands (ev):

    -2.7425  -0.9737   2.4870   3.1884

          k = 0.6250-0.1250 0.8750 (   368 PWs)   bands (ev):

    -2.5851  -1.0661   1.8958   2.9428

          k = 0.6250 0.3750 0.8750 (   365 PWs)   bands (ev):

    -3.7793   0.0215   2.5769   3.9172

          k = 0.3750 0.1250 0.6250 (   365 PWs)   bands (ev):

    -3.7793   0.0215   2.5769   3.9172

          k = 0.3750 0.6250 0.6250 (   364 PWs)   bands (ev):

    -3.5983  -0.8057   3.5519   4.2590

          k =-0.1250-0.8750 0.1250 (   364 PWs)   bands (ev):

    -2.7425  -0.9737   2.4870   3.1884

          k =-0.1250-0.3750 0.1250 (   358 PWs)   bands (ev):

    -5.1921   2.5677   4.5034   4.5547

          k =-0.3750 0.3750 0.3750 (   359 PWs)   bands (ev):

    -4.2841  -0.0321   4.7111   4.7111

          k =-0.3750 0.8750 0.3750 (   369 PWs)   bands (ev):

    -3.1125  -0.7495   1.9436   3.9502

          k = 0.3750-0.3750 1.1250 (   369 PWs)   bands (ev):

    -3.1125  -0.7495   1.9436   3.9502

          k = 0.3750 0.1250 1.1250 (   368 PWs)   bands (ev):

    -2.5851  -1.0661   1.8958   2.9428

          k =-0.1250-0.1250 0.1250 (   353 PWs)   bands (ev):

    -5.7091   4.1760   5.4875   5.4875

          k =-0.1250 0.3750 0.1250 (   358 PWs)   bands (ev):

    -5.1921   2.5677   4.5034   4.5547

          k = 0.1250-0.3750 0.3750 (   362 PWs)   bands (ev):

    -4.7051   1.2202   3.5432   5.0112

          k = 0.1250 0.1250 0.3750 (   358 PWs)   bands (ev):

    -5.1921   2.5677   4.5034   4.5547

          k = 0.3750-0.1250 0.3750 (   362 PWs)   bands (ev):

    -4.7051   1.2202   3.5432   5.0112

          k = 0.3750 0.3750 0.3750 (   359 PWs)   bands (ev):

    -4.2841  -0.0321   4.7111   4.7111

          k = 0.3750 0.1250 0.3750 (   362 PWs)   bands (ev):

    -4.7051   1.2202   3.5432   5.0112

          k = 0.3750 0.6250 0.3750 (   364 PWs)   bands (ev):

    -3.5983  -0.8057   3.5519   4.2590

          k =-0.6250 0.3750-0.3750 (   364 PWs)   bands (ev):

    -3.5983  -0.8057   3.5519   4.2590

          k =-0.6250 0.8750-0.3750 (   365 PWs)   bands (ev):

    -3.7793   0.0215   2.5769   3.9172

          k =-0.3750 0.6250-0.3750 (   364 PWs)   bands (ev):

    -3.5983  -0.8057   3.5519   4.2590

          k =-0.3750 1.1250-0.3750 (   369 PWs)   bands (ev):

    -3.1125  -0.7495   1.9436   3.9502

          k =-0.3750-0.6250-0.3750 (   364 PWs)   bands (ev):

    -3.5983  -0.8057   3.5519   4.2590

          k =-0.3750-0.1250-0.3750 (   362 PWs)   bands (ev):

    -4.7051   1.2202   3.5432   5.0112

          k =-0.3750 0.1250-0.1250 (   358 PWs)   bands (ev):

    -5.1921   2.5677   4.5034   4.5547

          k =-0.3750 0.6250-0.1250 (   365 PWs)   bands (ev):

    -3.7793   0.0215   2.5769   3.9172

          k =-0.1250 0.3750-0.1250 (   358 PWs)   bands (ev):

    -5.1921   2.5677   4.5034   4.5547

          k =-0.1250 0.8750-0.1250 (   364 PWs)   bands (ev):

    -2.7425  -0.9737   2.4870   3.1884

          k =-0.1250-0.3750-0.1250 (   358 PWs)   bands (ev):

    -5.1921   2.5677   4.5034   4.5547

          k =-0.1250 0.1250-0.1250 (   353 PWs)   bands (ev):

    -5.7091   4.1760   5.4875   5.4875

          k =-0.1250-0.6250 0.1250 (   357 PWs)   bands (ev):

    -4.1826   0.8631   3.2076   3.6467

          k =-0.1250-0.1250 0.1250 (   353 PWs)   bands (ev):

    -5.7091   4.1760   5.4875   5.4875

          k = 0.6250-0.1250-0.1250 (   357 PWs)   bands (ev):

    -4.1826   0.8631   3.2076   3.6467

          k = 0.6250 0.3750-0.1250 (   365 PWs)   bands (ev):

    -3.7793   0.0215   2.5769   3.9172

          k = 0.6250 0.1250 0.1250 (   357 PWs)   bands (ev):

    -4.1826   0.8631   3.2076   3.6467

          k = 0.6250 0.6250 0.1250 (   369 PWs)   bands (ev):

    -3.1125  -0.7495   1.9436   3.9502

          k =-0.8750 0.1250-0.6250 (   368 PWs)   bands (ev):

    -2.5851  -1.0661   1.8958   2.9428

          k =-0.8750 0.6250-0.6250 (   362 PWs)   bands (ev):

    -4.7051   1.2202   3.5432   5.0112

          k =-0.1250 0.6250-0.8750 (   368 PWs)   bands (ev):

    -2.5851  -1.0661   1.8958   2.9428

          k =-0.1250 1.1250-0.8750 (   364 PWs)   bands (ev):

    -2.7425  -0.9737   2.4870   3.1884

          k =-0.1250 0.8750-0.6250 (   368 PWs)   bands (ev):

    -2.5851  -1.0661   1.8958   2.9428

          k =-0.1250 1.3750-0.6250 (   369 PWs)   bands (ev):

    -3.1125  -0.7495   1.9436   3.9502

          k =-0.1250-0.8750-0.6250 (   368 PWs)   bands (ev):

    -2.5851  -1.0661   1.8958   2.9428

          k =-0.1250-0.3750-0.6250 (   365 PWs)   bands (ev):

    -3.7793   0.0215   2.5769   3.9172

          k = 0.8750-0.6250 0.1250 (   368 PWs)   bands (ev):

    -2.5851  -1.0661   1.8958   2.9428

          k = 0.8750-0.1250 0.1250 (   364 PWs)   bands (ev):

    -2.7425  -0.9737   2.4870   3.1884

          k =-0.6250-0.1250-0.3750 (   365 PWs)   bands (ev):

    -3.7793   0.0215   2.5769   3.9172

          k =-0.6250 0.3750-0.3750 (   364 PWs)   bands (ev):

    -3.5983  -0.8057   3.5519   4.2590

          k = 0.1250 0.3750-0.6250 (   365 PWs)   bands (ev):

    -3.7793   0.0215   2.5769   3.9172

          k = 0.1250 0.8750-0.6250 (   368 PWs)   bands (ev):

    -2.5851  -1.0661   1.8958   2.9428

          k = 0.1250 0.6250-0.3750 (   365 PWs)   bands (ev):

    -3.7793   0.0215   2.5769   3.9172

          k = 0.1250 1.1250-0.3750 (   368 PWs)   bands (ev):

    -2.5851  -1.0661   1.8958   2.9428

          k = 0.1250-0.6250-0.3750 (   365 PWs)   bands (ev):

    -3.7793   0.0215   2.5769   3.9172

          k = 0.1250-0.1250-0.3750 (   358 PWs)   bands (ev):

    -5.1921   2.5677   4.5034   4.5547

          k = 0.6250-0.3750-0.1250 (   365 PWs)   bands (ev):

    -3.7793   0.0215   2.5769   3.9172

          k = 0.6250 0.1250-0.1250 (   357 PWs)   bands (ev):

    -4.1826   0.8631   3.2076   3.6467

          k =-0.1250 0.8750 0.1250 (   364 PWs)   bands (ev):

    -2.7425  -0.9737   2.4870   3.1884

          k =-0.1250 1.3750 0.1250 (   357 PWs)   bands (ev):

    -4.1826   0.8631   3.2076   3.6467

          k =-0.8750-0.1250-0.1250 (   364 PWs)   bands (ev):

    -2.7425  -0.9737   2.4870   3.1884

          k =-0.8750 0.3750-0.1250 (   368 PWs)   bands (ev):

    -2.5851  -1.0661   1.8958   2.9428

          k =-0.8750 0.1250 0.1250 (   364 PWs)   bands (ev):

    -2.7425  -0.9737   2.4870   3.1884

          k =-0.8750 0.6250 0.1250 (   368 PWs)   bands (ev):

    -2.5851  -1.0661   1.8958   2.9428

          k =-0.3750-0.3750 0.3750 (   359 PWs)   bands (ev):

    -4.2841  -0.0321   4.7111   4.7111

          k =-0.3750 0.1250 0.3750 (   362 PWs)   bands (ev):

    -4.7051   1.2202   3.5432   5.0112

          k =-1.1250 0.3750-0.3750 (   369 PWs)   bands (ev):

    -3.1125  -0.7495   1.9436   3.9502

          k =-1.1250 0.8750-0.3750 (   357 PWs)   bands (ev):

    -4.1826   0.8631   3.2076   3.6467

          k =-0.3750 1.1250-0.3750 (   369 PWs)   bands (ev):

    -3.1125  -0.7495   1.9436   3.9502

          k =-0.3750 1.6250-0.3750 (   359 PWs)   bands (ev):

    -4.2841  -0.0321   4.7111   4.7111

          k =-0.3750-1.1250-0.3750 (   369 PWs)   bands (ev):

    -3.1125  -0.7495   1.9436   3.9502

          k =-0.3750-0.6250-0.3750 (   364 PWs)   bands (ev):

    -3.5983  -0.8057   3.5519   4.2590

     highest occupied level (ev):     5.4875

     Writing output data file silicon.10.408.save

                                                                                

     bravais-lattice index     =            2
     lattice parameter (alat)  =      10.4080  a.u.
     unit-cell volume          =     281.8655 (a.u.)^3
     number of atoms/cell      =            2
     number of atomic types    =            1
     kinetic-energy cut-off    =      18.0000  Ry
     charge density cut-off    =      72.0000  Ry
     convergence threshold     =      1.0E-12
     beta                      =       0.7000
     number of iterations used =            4
     Exchange-correlation      = SLA  PW   PBE  PBE ( 1  4  3  4 0 0)


     celldm(1)=   10.40800  celldm(2)=    0.00000  celldm(3)=    0.00000
     celldm(4)=    0.00000  celldm(5)=    0.00000  celldm(6)=    0.00000

     crystal axes: (cart. coord. in units of alat)
               a(1) = ( -0.5000  0.0000  0.5000 )  
               a(2) = (  0.0000  0.5000  0.5000 )  
               a(3) = ( -0.5000  0.5000  0.0000 )  

     reciprocal axes: (cart. coord. in units 2 pi/alat)
               b(1) = ( -1.0000 -1.0000  1.0000 )  
               b(2) = (  1.0000  1.0000  1.0000 )  
               b(3) = ( -1.0000  1.0000 -1.0000 )  


     Atoms inside the unit cell: 

     Cartesian axes

     site n.  atom      mass           positions (alat units)
        1     Si  28.0860   tau(    1) = (    0.00000    0.00000    0.00000  )
        2     Si  28.0860   tau(    2) = (    0.25000    0.25000    0.25000  )

     Computing dynamical matrix for 
                    q = (   0.0000000   0.5000000   0.0000000 )

      8 Sym.Ops. (no q -> -q+G )


     G cutoff =  197.5638  (    722 G-vectors)     FFT grid: ( 20, 20, 20)
     number of k points=    80

     PseudoPot. # 1 for Si read from file:
     /home/max/quantum_espresso/qe-6.1/pseudo/si_pbe_v1.uspp.F.UPF.txt
     MD5 check sum: a056efeee980c13900f22a371efd63c1
     Pseudo is Ultrasoft + core correction, Zval =  4.0
     Generated by new atomic code, or converted to UPF format
     Using radial grid of  899 points,  6 beta functions with: 
                l(1) =   0
                l(2) =   0
                l(3) =   1
                l(4) =   1
                l(5) =   2
                l(6) =   2
     Q(r) pseudized with  8 coefficients,  rinner =    0.900   0.900   0.900
                                                       0.900   0.900

     Mode symmetry, C_4v (4mm)  point group:


     Atomic displacements:
     There are   4 irreducible representations

     Representation     1      1 modes -A_1  G_1 D_1  To be done

     Representation     2      1 modes -B_2  G_4 D_2'  To be done

     Representation     3      2 modes -E    G_5 D_5  To be done

     Representation     4      2 modes -E    G_5 D_5  To be done



     Alpha used in Ewald sum =   0.7000
     PHONON       :    21.32s CPU        22.74s WALL



     Representation #  1 mode #   1

     Self-consistent Calculation

      iter #   1 total cpu time :    23.3 secs   av.it.:   5.8
      thresh= 1.000E-02 alpha_mix =  0.700 |ddv_scf|^2 =  2.919E-03

      iter #   2 total cpu time :    23.4 secs   av.it.:   7.6
      thresh= 5.403E-03 alpha_mix =  0.700 |ddv_scf|^2 =  3.882E-02

      iter #   3 total cpu time :    23.6 secs   av.it.:   6.7
      thresh= 1.000E-02 alpha_mix =  0.700 |ddv_scf|^2 =  1.465E-07

      iter #   4 total cpu time :    23.8 secs   av.it.:   8.1
      thresh= 3.827E-05 alpha_mix =  0.700 |ddv_scf|^2 =  1.650E-08

      iter #   5 total cpu time :    24.0 secs   av.it.:   7.7
      thresh= 1.285E-05 alpha_mix =  0.700 |ddv_scf|^2 =  6.839E-10

      iter #   6 total cpu time :    24.1 secs   av.it.:   7.9
      thresh= 2.615E-06 alpha_mix =  0.700 |ddv_scf|^2 =  2.745E-12

      iter #   7 total cpu time :    24.3 secs   av.it.:   7.9
      thresh= 1.657E-07 alpha_mix =  0.700 |ddv_scf|^2 =  5.153E-13

     End of self-consistent calculation

     Convergence has been achieved 


     Representation #  2 mode #   2

     Self-consistent Calculation

      iter #   1 total cpu time :    24.5 secs   av.it.:   4.9
      thresh= 1.000E-02 alpha_mix =  0.700 |ddv_scf|^2 =  5.135E-06

      iter #   2 total cpu time :    24.7 secs   av.it.:   8.7
      thresh= 2.266E-04 alpha_mix =  0.700 |ddv_scf|^2 =  1.347E-06

      iter #   3 total cpu time :    24.8 secs   av.it.:   8.6
      thresh= 1.161E-04 alpha_mix =  0.700 |ddv_scf|^2 =  3.182E-08

      iter #   4 total cpu time :    25.0 secs   av.it.:   8.2
      thresh= 1.784E-05 alpha_mix =  0.700 |ddv_scf|^2 =  7.767E-10

      iter #   5 total cpu time :    25.4 secs   av.it.:   8.6
      thresh= 2.787E-06 alpha_mix =  0.700 |ddv_scf|^2 =  8.234E-12

      iter #   6 total cpu time :    25.6 secs   av.it.:   7.8
      thresh= 2.870E-07 alpha_mix =  0.700 |ddv_scf|^2 =  9.625E-14

     End of self-consistent calculation

     Convergence has been achieved 


     Representation #  3 modes #   3  4

     Self-consistent Calculation

      iter #   1 total cpu time :    25.9 secs   av.it.:   5.0
      thresh= 1.000E-02 alpha_mix =  0.700 |ddv_scf|^2 =  9.393E-07

      iter #   2 total cpu time :    26.3 secs   av.it.:   9.8
      thresh= 9.692E-05 alpha_mix =  0.700 |ddv_scf|^2 =  1.192E-07

      iter #   3 total cpu time :    26.7 secs   av.it.:   9.5
      thresh= 3.453E-05 alpha_mix =  0.700 |ddv_scf|^2 =  4.960E-09

      iter #   4 total cpu time :    27.0 secs   av.it.:   8.9
      thresh= 7.043E-06 alpha_mix =  0.700 |ddv_scf|^2 =  8.867E-12

      iter #   5 total cpu time :    27.6 secs   av.it.:   9.1
      thresh= 2.978E-07 alpha_mix =  0.700 |ddv_scf|^2 =  3.023E-13

     End of self-consistent calculation

     Convergence has been achieved 


     Representation #  4 modes #   5  6

     Self-consistent Calculation

      iter #   1 total cpu time :    27.9 secs   av.it.:   5.0
      thresh= 1.000E-02 alpha_mix =  0.700 |ddv_scf|^2 =  9.437E-07

      iter #   2 total cpu time :    28.3 secs   av.it.:   9.8
      thresh= 9.714E-05 alpha_mix =  0.700 |ddv_scf|^2 =  1.198E-07

      iter #   3 total cpu time :    28.7 secs   av.it.:   9.5
      thresh= 3.461E-05 alpha_mix =  0.700 |ddv_scf|^2 =  7.407E-09

      iter #   4 total cpu time :    29.2 secs   av.it.:   8.9
      thresh= 8.607E-06 alpha_mix =  0.700 |ddv_scf|^2 =  1.554E-11

      iter #   5 total cpu time :    29.6 secs   av.it.:   9.2
      thresh= 3.942E-07 alpha_mix =  0.700 |ddv_scf|^2 =  4.599E-14

     End of self-consistent calculation

     Convergence has been achieved 

     Number of q in the star =    6
     List of q in the star:
          1   0.000000000   0.500000000   0.000000000
          2   0.000000000  -0.500000000   0.000000000
          3   0.500000000   0.000000000   0.000000000
          4   0.000000000   0.000000000   0.500000000
          5   0.000000000   0.000000000  -0.500000000
          6  -0.500000000   0.000000000   0.000000000

     Diagonalizing the dynamical matrix

     q = (    0.000000000   0.500000000   0.000000000 ) 

 **************************************************************************
     freq (    1) =       4.403955 [THz] =     146.900112 [cm-1]
     freq (    2) =       4.403955 [THz] =     146.900112 [cm-1]
     freq (    3) =       6.991706 [THz] =     233.218198 [cm-1]
     freq (    4) =      14.187438 [THz] =     473.241984 [cm-1]
     freq (    5) =      14.187438 [THz] =     473.241984 [cm-1]
     freq (    6) =      14.899228 [THz] =     496.984734 [cm-1]
 **************************************************************************

     Mode symmetry, C_4v (4mm)  point group:

     freq (  1 -  2) =        146.9  [cm-1]   --> E    G_5 D_5       
     freq (  3 -  3) =        233.2  [cm-1]   --> A_1  G_1 D_1       
     freq (  4 -  5) =        473.2  [cm-1]   --> E    G_5 D_5       
     freq (  6 -  6) =        497.0  [cm-1]   --> B_2  G_4 D_2'      

     Calculation of q =    0.7500000  -0.2500000   0.7500000

   Info: using nr1, nr2, nr3 values from input

   Info: using nr1, nr2, nr3 values from input

     Parallelization info
     --------------------
     sticks:   dense  smooth     PW     G-vecs:    dense   smooth      PW
     Min          65      65     30                  722      722     216
     Max          67      67     31                  723      723     218
     Sum         265     265    121                 2891     2891     869



     bravais-lattice index     =            2
     lattice parameter (alat)  =      10.4080  a.u.
     unit-cell volume          =     281.8655 (a.u.)^3
     number of atoms/cell      =            2
     number of atomic types    =            1
     number of electrons       =         8.00
     number of Kohn-Sham states=            4
     kinetic-energy cutoff     =      18.0000  Ry
     charge density cutoff     =      72.0000  Ry
     Exchange-correlation      = SLA  PW   PBE  PBE ( 1  4  3  4 0 0)

     celldm(1)=  10.408000  celldm(2)=   0.000000  celldm(3)=   0.000000
     celldm(4)=   0.000000  celldm(5)=   0.000000  celldm(6)=   0.000000

     crystal axes: (cart. coord. in units of alat)
               a(1) = (  -0.500000   0.000000   0.500000 )  
               a(2) = (   0.000000   0.500000   0.500000 )  
               a(3) = (  -0.500000   0.500000   0.000000 )  

     reciprocal axes: (cart. coord. in units 2 pi/alat)
               b(1) = ( -1.000000 -1.000000  1.000000 )  
               b(2) = (  1.000000  1.000000  1.000000 )  
               b(3) = ( -1.000000  1.000000 -1.000000 )  


     PseudoPot. # 1 for Si read from file:
     /home/max/quantum_espresso/qe-6.1/pseudo/si_pbe_v1.uspp.F.UPF.txt
     MD5 check sum: a056efeee980c13900f22a371efd63c1
     Pseudo is Ultrasoft + core correction, Zval =  4.0
     Generated by new atomic code, or converted to UPF format
     Using radial grid of  899 points,  6 beta functions with: 
                l(1) =   0
                l(2) =   0
                l(3) =   1
                l(4) =   1
                l(5) =   2
                l(6) =   2
     Q(r) pseudized with  8 coefficients,  rinner =    0.900   0.900   0.900
                                                       0.900   0.900

     atomic species   valence    mass     pseudopotential
        Si             4.00    28.08600     Si( 1.00)

     48 Sym. Ops., with inversion, found



   Cartesian axes

     site n.     atom                  positions (alat units)
         1           Si  tau(   1) = (   0.0000000   0.0000000   0.0000000  )
         2           Si  tau(   2) = (   0.2500000   0.2500000   0.2500000  )

     number of k points=   288

     Number of k-points >= 100: set verbosity='high' to print them.

     Dense  grid:     2891 G-vectors     FFT dimensions: (  20,  20,  20)

     Estimated max dynamical RAM per process >       0.33MB

     Estimated total allocated dynamical RAM >       1.33MB

     Check: negative/imaginary core charge=   -0.000006    0.000000

     The potential is recalculated from file :
     ./_ph0/silicon.10.408.save/charge-density.dat

     Starting wfc are    8 atomic wfcs

     Band Structure Calculation
     Davidson diagonalization with overlap

     ethr =  1.25E-10,  avg # of iterations = 11.6

     total cpu time spent up to now is        4.0 secs

     End of band structure calculation

     Number of k-points >= 100: set verbosity='high' to print the bands.

     highest occupied level (ev):     5.4875

     Writing output data file silicon.10.408.save

                                                                                

     bravais-lattice index     =            2
     lattice parameter (alat)  =      10.4080  a.u.
     unit-cell volume          =     281.8655 (a.u.)^3
     number of atoms/cell      =            2
     number of atomic types    =            1
     kinetic-energy cut-off    =      18.0000  Ry
     charge density cut-off    =      72.0000  Ry
     convergence threshold     =      1.0E-12
     beta                      =       0.7000
     number of iterations used =            4
     Exchange-correlation      = SLA  PW   PBE  PBE ( 1  4  3  4 0 0)


     celldm(1)=   10.40800  celldm(2)=    0.00000  celldm(3)=    0.00000
     celldm(4)=    0.00000  celldm(5)=    0.00000  celldm(6)=    0.00000

     crystal axes: (cart. coord. in units of alat)
               a(1) = ( -0.5000  0.0000  0.5000 )  
               a(2) = (  0.0000  0.5000  0.5000 )  
               a(3) = ( -0.5000  0.5000  0.0000 )  

     reciprocal axes: (cart. coord. in units 2 pi/alat)
               b(1) = ( -1.0000 -1.0000  1.0000 )  
               b(2) = (  1.0000  1.0000  1.0000 )  
               b(3) = ( -1.0000  1.0000 -1.0000 )  


     Atoms inside the unit cell: 

     Cartesian axes

     site n.  atom      mass           positions (alat units)
        1     Si  28.0860   tau(    1) = (    0.00000    0.00000    0.00000  )
        2     Si  28.0860   tau(    2) = (    0.25000    0.25000    0.25000  )

     Computing dynamical matrix for 
                    q = (   0.7500000  -0.2500000   0.7500000 )

      2 Sym.Ops. (no q -> -q+G )


     G cutoff =  197.5638  (    723 G-vectors)     FFT grid: ( 20, 20, 20)
     number of k points=   288

     PseudoPot. # 1 for Si read from file:
     /home/max/quantum_espresso/qe-6.1/pseudo/si_pbe_v1.uspp.F.UPF.txt
     MD5 check sum: a056efeee980c13900f22a371efd63c1
     Pseudo is Ultrasoft + core correction, Zval =  4.0
     Generated by new atomic code, or converted to UPF format
     Using radial grid of  899 points,  6 beta functions with: 
                l(1) =   0
                l(2) =   0
                l(3) =   1
                l(4) =   1
                l(5) =   2
                l(6) =   2
     Q(r) pseudized with  8 coefficients,  rinner =    0.900   0.900   0.900
                                                       0.900   0.900

     Mode symmetry, C_s (m)     point group:


     Atomic displacements:
     There are   6 irreducible representations

     Representation     1      1 modes -A'  To be done

     Representation     2      1 modes -A'  To be done

     Representation     3      1 modes -A'  To be done

     Representation     4      1 modes -A'  To be done

     Representation     5      1 modes -A''  To be done

     Representation     6      1 modes -A''  To be done



     Alpha used in Ewald sum =   0.7000
     PHONON       :    30.22s CPU        32.32s WALL



     Representation #  1 mode #   1

     Self-consistent Calculation

      iter #   1 total cpu time :    32.8 secs   av.it.:   5.3
      thresh= 1.000E-02 alpha_mix =  0.700 |ddv_scf|^2 =  6.030E-05

      iter #   2 total cpu time :    33.6 secs   av.it.:   8.9
      thresh= 7.765E-04 alpha_mix =  0.700 |ddv_scf|^2 =  1.603E-04

      iter #   3 total cpu time :    34.2 secs   av.it.:   7.6
      thresh= 1.266E-03 alpha_mix =  0.700 |ddv_scf|^2 =  1.128E-06

      iter #   4 total cpu time :    34.9 secs   av.it.:   8.4
      thresh= 1.062E-04 alpha_mix =  0.700 |ddv_scf|^2 =  5.812E-08

      iter #   5 total cpu time :    35.7 secs   av.it.:   8.3
      thresh= 2.411E-05 alpha_mix =  0.700 |ddv_scf|^2 =  7.323E-09

      iter #   6 total cpu time :    36.3 secs   av.it.:   8.5
      thresh= 8.557E-06 alpha_mix =  0.700 |ddv_scf|^2 =  9.741E-11

      iter #   7 total cpu time :    37.0 secs   av.it.:   8.7
      thresh= 9.869E-07 alpha_mix =  0.700 |ddv_scf|^2 =  3.340E-12

      iter #   8 total cpu time :    37.8 secs   av.it.:   8.6
      thresh= 1.828E-07 alpha_mix =  0.700 |ddv_scf|^2 =  1.999E-13

     End of self-consistent calculation

     Convergence has been achieved 


     Representation #  2 mode #   2

     Self-consistent Calculation

      iter #   1 total cpu time :    38.3 secs   av.it.:   5.4
      thresh= 1.000E-02 alpha_mix =  0.700 |ddv_scf|^2 =  1.075E-04

      iter #   2 total cpu time :    39.0 secs   av.it.:   8.7
      thresh= 1.037E-03 alpha_mix =  0.700 |ddv_scf|^2 =  3.088E-04

      iter #   3 total cpu time :    39.7 secs   av.it.:   7.4
      thresh= 1.757E-03 alpha_mix =  0.700 |ddv_scf|^2 =  8.075E-07

      iter #   4 total cpu time :    40.3 secs   av.it.:   8.5
      thresh= 8.986E-05 alpha_mix =  0.700 |ddv_scf|^2 =  5.626E-08

      iter #   5 total cpu time :    41.0 secs   av.it.:   8.2
      thresh= 2.372E-05 alpha_mix =  0.700 |ddv_scf|^2 =  1.068E-08

      iter #   6 total cpu time :    41.8 secs   av.it.:   8.5
      thresh= 1.034E-05 alpha_mix =  0.700 |ddv_scf|^2 =  9.669E-11

      iter #   7 total cpu time :    42.4 secs   av.it.:   8.7
      thresh= 9.833E-07 alpha_mix =  0.700 |ddv_scf|^2 =  3.026E-12

      iter #   8 total cpu time :    43.1 secs   av.it.:   8.7
      thresh= 1.740E-07 alpha_mix =  0.700 |ddv_scf|^2 =  8.683E-13

     End of self-consistent calculation

     Convergence has been achieved 


     Representation #  3 mode #   3

     Self-consistent Calculation

      iter #   1 total cpu time :    43.8 secs   av.it.:   5.3
      thresh= 1.000E-02 alpha_mix =  0.700 |ddv_scf|^2 =  8.430E-05

      iter #   2 total cpu time :    44.4 secs   av.it.:   8.8
      thresh= 9.182E-04 alpha_mix =  0.700 |ddv_scf|^2 =  2.260E-04

      iter #   3 total cpu time :    45.0 secs   av.it.:   7.4
      thresh= 1.503E-03 alpha_mix =  0.700 |ddv_scf|^2 =  1.375E-06

      iter #   4 total cpu time :    45.8 secs   av.it.:   8.2
      thresh= 1.172E-04 alpha_mix =  0.700 |ddv_scf|^2 =  5.788E-08

      iter #   5 total cpu time :    46.5 secs   av.it.:   8.4
      thresh= 2.406E-05 alpha_mix =  0.700 |ddv_scf|^2 =  1.101E-08

      iter #   6 total cpu time :    47.1 secs   av.it.:   8.5
      thresh= 1.049E-05 alpha_mix =  0.700 |ddv_scf|^2 =  5.525E-11

      iter #   7 total cpu time :    47.9 secs   av.it.:   8.7
      thresh= 7.433E-07 alpha_mix =  0.700 |ddv_scf|^2 =  2.131E-12

      iter #   8 total cpu time :    48.5 secs   av.it.:   8.8
      thresh= 1.460E-07 alpha_mix =  0.700 |ddv_scf|^2 =  5.016E-13

     End of self-consistent calculation

     Convergence has been achieved 


     Representation #  4 mode #   4

     Self-consistent Calculation

      iter #   1 total cpu time :    49.1 secs   av.it.:   5.2
      thresh= 1.000E-02 alpha_mix =  0.700 |ddv_scf|^2 =  3.717E-05

      iter #   2 total cpu time :    49.9 secs   av.it.:   8.9
[...]
        k(   59) = (  -0.8750000   0.1250000  -0.1250000), wk =   0.0625000
        k(   60) = (  -1.3750000  -0.8750000  -0.1250000), wk =   0.0000000
        k(   61) = (  -1.1250000   0.3750000  -0.3750000), wk =   0.0625000
        k(   62) = (  -1.6250000  -0.6250000  -0.3750000), wk =   0.0000000
        k(   63) = (  -0.3750000   0.3750000   1.1250000), wk =   0.0625000
        k(   64) = (  -0.8750000  -0.6250000   1.1250000), wk =   0.0000000

     Dense  grid:     2891 G-vectors     FFT dimensions: (  20,  20,  20)

     Estimated max dynamical RAM per process >       0.33MB

     Estimated total allocated dynamical RAM >       1.33MB

     Check: negative/imaginary core charge=   -0.000006    0.000000

     The potential is recalculated from file :
     ./_ph0/silicon.10.408.save/charge-density.dat

     Starting wfc are    8 atomic wfcs

     Band Structure Calculation
     Davidson diagonalization with overlap

     ethr =  1.25E-10,  avg # of iterations = 11.6

     total cpu time spent up to now is        6.5 secs

     End of band structure calculation

          k =-0.1250 0.1250 0.1250 (   353 PWs)   bands (ev):

    -5.7091   4.1760   5.4875   5.4875

          k =-0.6250-0.8750 0.1250 (   368 PWs)   bands (ev):

    -2.5851  -1.0661   1.8958   2.9428

          k =-0.3750 0.3750-0.1250 (   362 PWs)   bands (ev):

    -4.7051   1.2202   3.5432   5.0112

          k =-0.8750-0.6250-0.1250 (   368 PWs)   bands (ev):

    -2.5851  -1.0661   1.8958   2.9428

          k = 0.3750-0.3750 0.6250 (   364 PWs)   bands (ev):

    -3.5983  -0.8057   3.5519   4.2590

          k =-0.1250-1.3750 0.6250 (   369 PWs)   bands (ev):

    -3.1125  -0.7495   1.9436   3.9502

          k = 0.1250-0.1250 0.3750 (   358 PWs)   bands (ev):

    -5.1921   2.5677   4.5034   4.5547

          k =-0.3750-1.1250 0.3750 (   369 PWs)   bands (ev):

    -3.1125  -0.7495   1.9436   3.9502

          k =-0.1250 0.6250 0.1250 (   357 PWs)   bands (ev):

    -4.1826   0.8631   3.2076   3.6467

          k =-0.6250-0.3750 0.1250 (   365 PWs)   bands (ev):

    -3.7793   0.0215   2.5769   3.9172

          k = 0.6250-0.1250 0.8750 (   368 PWs)   bands (ev):

    -2.5851  -1.0661   1.8958   2.9428

          k = 0.1250-1.1250 0.8750 (   364 PWs)   bands (ev):

    -2.7425  -0.9737   2.4870   3.1884

          k = 0.3750 0.1250 0.6250 (   365 PWs)   bands (ev):

    -3.7793   0.0215   2.5769   3.9172

          k =-0.1250-0.8750 0.6250 (   368 PWs)   bands (ev):

    -2.5851  -1.0661   1.8958   2.9428

          k =-0.1250-0.8750 0.1250 (   364 PWs)   bands (ev):

    -2.7425  -0.9737   2.4870   3.1884

          k =-0.6250-1.8750 0.1250 (   357 PWs)   bands (ev):

    -4.1826   0.8631   3.2076   3.6467

          k =-0.3750 0.3750 0.3750 (   359 PWs)   bands (ev):

    -4.2841  -0.0321   4.7111   4.7111

          k =-0.8750-0.6250 0.3750 (   365 PWs)   bands (ev):

    -3.7793   0.0215   2.5769   3.9172

          k = 0.3750-0.3750 1.1250 (   369 PWs)   bands (ev):

    -3.1125  -0.7495   1.9436   3.9502

          k =-0.1250-1.3750 1.1250 (   368 PWs)   bands (ev):

    -2.5851  -1.0661   1.8958   2.9428

          k = 0.1250-0.3750 0.3750 (   362 PWs)   bands (ev):

    -4.7051   1.2202   3.5432   5.0112

          k =-0.3750-1.3750 0.3750 (   364 PWs)   bands (ev):

    -3.5983  -0.8057   3.5519   4.2590

          k = 0.3750-0.3750-0.1250 (   362 PWs)   bands (ev):

    -4.7051   1.2202   3.5432   5.0112

          k =-0.1250-1.3750-0.1250 (   357 PWs)   bands (ev):

    -4.1826   0.8631   3.2076   3.6467

          k =-0.6250 0.3750-0.3750 (   364 PWs)   bands (ev):

    -3.5983  -0.8057   3.5519   4.2590

          k =-1.1250-0.6250-0.3750 (   365 PWs)   bands (ev):

    -3.7793   0.0215   2.5769   3.9172

          k =-0.3750 0.3750 0.6250 (   364 PWs)   bands (ev):

    -3.5983  -0.8057   3.5519   4.2590

          k =-0.8750-0.6250 0.6250 (   362 PWs)   bands (ev):

    -4.7051   1.2202   3.5432   5.0112

          k =-0.3750 0.1250-0.1250 (   358 PWs)   bands (ev):

    -5.1921   2.5677   4.5034   4.5547

          k =-0.8750-0.8750-0.1250 (   364 PWs)   bands (ev):

    -2.7425  -0.9737   2.4870   3.1884

          k =-0.1250 0.1250 0.3750 (   358 PWs)   bands (ev):

    -5.1921   2.5677   4.5034   4.5547

          k =-0.6250-0.8750 0.3750 (   365 PWs)   bands (ev):

    -3.7793   0.0215   2.5769   3.9172

          k = 0.1250 0.6250-0.1250 (   357 PWs)   bands (ev):

    -4.1826   0.8631   3.2076   3.6467

          k =-0.3750-0.3750-0.1250 (   362 PWs)   bands (ev):

    -4.7051   1.2202   3.5432   5.0112

          k = 0.6250 0.1250-0.1250 (   357 PWs)   bands (ev):

    -4.1826   0.8631   3.2076   3.6467

          k = 0.1250-0.8750-0.1250 (   364 PWs)   bands (ev):

    -2.7425  -0.9737   2.4870   3.1884

          k =-0.8750 0.1250-0.6250 (   368 PWs)   bands (ev):

    -2.5851  -1.0661   1.8958   2.9428

          k =-1.3750-0.8750-0.6250 (   362 PWs)   bands (ev):

    -4.7051   1.2202   3.5432   5.0112

          k = 0.8750-0.1250 0.6250 (   368 PWs)   bands (ev):

    -2.5851  -1.0661   1.8958   2.9428

          k = 0.3750-1.1250 0.6250 (   365 PWs)   bands (ev):

    -3.7793   0.0215   2.5769   3.9172

          k =-0.6250 0.1250 0.8750 (   368 PWs)   bands (ev):

    -2.5851  -1.0661   1.8958   2.9428

          k =-1.1250-0.8750 0.8750 (   353 PWs)   bands (ev):

    -5.7091   4.1760   5.4875   5.4875

          k =-0.1250 0.8750 0.6250 (   368 PWs)   bands (ev):

    -2.5851  -1.0661   1.8958   2.9428

          k =-0.6250-0.1250 0.6250 (   369 PWs)   bands (ev):

    -3.1125  -0.7495   1.9436   3.9502

          k = 0.1250 0.8750-0.6250 (   368 PWs)   bands (ev):

    -2.5851  -1.0661   1.8958   2.9428

          k =-0.3750-0.1250-0.6250 (   365 PWs)   bands (ev):

    -3.7793   0.0215   2.5769   3.9172

          k =-0.6250-0.1250-0.3750 (   365 PWs)   bands (ev):

    -3.7793   0.0215   2.5769   3.9172

          k =-1.1250-1.1250-0.3750 (   357 PWs)   bands (ev):

    -4.1826   0.8631   3.2076   3.6467

          k = 0.6250 0.1250 0.3750 (   365 PWs)   bands (ev):

    -3.7793   0.0215   2.5769   3.9172

          k = 0.1250-0.8750 0.3750 (   368 PWs)   bands (ev):

    -2.5851  -1.0661   1.8958   2.9428

          k =-0.3750-0.1250 0.6250 (   365 PWs)   bands (ev):

    -3.7793   0.0215   2.5769   3.9172

          k =-0.8750-1.1250 0.6250 (   358 PWs)   bands (ev):

    -5.1921   2.5677   4.5034   4.5547

          k = 0.1250 0.6250 0.3750 (   365 PWs)   bands (ev):

    -3.7793   0.0215   2.5769   3.9172

          k =-0.3750-0.3750 0.3750 (   359 PWs)   bands (ev):

    -4.2841  -0.0321   4.7111   4.7111

          k =-0.1250 0.6250-0.3750 (   365 PWs)   bands (ev):

    -3.7793   0.0215   2.5769   3.9172

          k =-0.6250-0.3750-0.3750 (   364 PWs)   bands (ev):

    -3.5983  -0.8057   3.5519   4.2590

          k = 0.1250-0.8750-0.1250 (   364 PWs)   bands (ev):

    -2.7425  -0.9737   2.4870   3.1884

          k =-0.3750-1.8750-0.1250 (   358 PWs)   bands (ev):

    -5.1921   2.5677   4.5034   4.5547

          k =-0.8750 0.1250-0.1250 (   364 PWs)   bands (ev):

    -2.7425  -0.9737   2.4870   3.1884

          k =-1.3750-0.8750-0.1250 (   368 PWs)   bands (ev):

    -2.5851  -1.0661   1.8958   2.9428

          k =-1.1250 0.3750-0.3750 (   369 PWs)   bands (ev):

    -3.1125  -0.7495   1.9436   3.9502

          k =-1.6250-0.6250-0.3750 (   364 PWs)   bands (ev):

    -3.5983  -0.8057   3.5519   4.2590

          k =-0.3750 0.3750 1.1250 (   369 PWs)   bands (ev):

    -3.1125  -0.7495   1.9436   3.9502

          k =-0.8750-0.6250 1.1250 (   358 PWs)   bands (ev):

    -5.1921   2.5677   4.5034   4.5547

     highest occupied level (ev):     5.4875

     Writing output data file silicon.10.408.save

                                                                                

     bravais-lattice index     =            2
     lattice parameter (alat)  =      10.4080  a.u.
     unit-cell volume          =     281.8655 (a.u.)^3
     number of atoms/cell      =            2
     number of atomic types    =            1
     kinetic-energy cut-off    =      18.0000  Ry
     charge density cut-off    =      72.0000  Ry
     convergence threshold     =      1.0E-12
     beta                      =       0.7000
     number of iterations used =            4
     Exchange-correlation      = SLA  PW   PBE  PBE ( 1  4  3  4 0 0)


     celldm(1)=   10.40800  celldm(2)=    0.00000  celldm(3)=    0.00000
     celldm(4)=    0.00000  celldm(5)=    0.00000  celldm(6)=    0.00000

     crystal axes: (cart. coord. in units of alat)
               a(1) = ( -0.5000  0.0000  0.5000 )  
               a(2) = (  0.0000  0.5000  0.5000 )  
               a(3) = ( -0.5000  0.5000  0.0000 )  

     reciprocal axes: (cart. coord. in units 2 pi/alat)
               b(1) = ( -1.0000 -1.0000  1.0000 )  
               b(2) = (  1.0000  1.0000  1.0000 )  
               b(3) = ( -1.0000  1.0000 -1.0000 )  


     Atoms inside the unit cell: 

     Cartesian axes

     site n.  atom      mass           positions (alat units)
        1     Si  28.0860   tau(    1) = (    0.00000    0.00000    0.00000  )
        2     Si  28.0860   tau(    2) = (    0.25000    0.25000    0.25000  )

     Computing dynamical matrix for 
                    q = (  -0.5000000  -1.0000000   0.0000000 )

      8 Sym.Ops. (no q -> -q+G )


     G cutoff =  197.5638  (    722 G-vectors)     FFT grid: ( 20, 20, 20)
     number of k points=    64

     PseudoPot. # 1 for Si read from file:
     /home/max/quantum_espresso/qe-6.1/pseudo/si_pbe_v1.uspp.F.UPF.txt
     MD5 check sum: a056efeee980c13900f22a371efd63c1
     Pseudo is Ultrasoft + core correction, Zval =  4.0
     Generated by new atomic code, or converted to UPF format
     Using radial grid of  899 points,  6 beta functions with: 
                l(1) =   0
                l(2) =   0
                l(3) =   1
                l(4) =   1
                l(5) =   2
                l(6) =   2
     Q(r) pseudized with  8 coefficients,  rinner =    0.900   0.900   0.900
                                                       0.900   0.900


     Atomic displacements:
     There are   3 irreducible representations

     Representation     1      2 modes -  To be done

     Representation     2      2 modes -  To be done

     Representation     3      2 modes -  To be done



     Alpha used in Ewald sum =   0.7000
     PHONON       :  1m14.15s CPU     1m19.80s WALL



     Representation #  1 modes #   1  2

     Self-consistent Calculation

      iter #   1 total cpu time :    80.0 secs   av.it.:   5.3
      thresh= 1.000E-02 alpha_mix =  0.700 |ddv_scf|^2 =  6.308E-06

      iter #   2 total cpu time :    80.4 secs   av.it.:   9.8
      thresh= 2.512E-04 alpha_mix =  0.700 |ddv_scf|^2 =  3.393E-06

      iter #   3 total cpu time :    80.7 secs   av.it.:   9.3
      thresh= 1.842E-04 alpha_mix =  0.700 |ddv_scf|^2 =  8.563E-09

      iter #   4 total cpu time :    81.0 secs   av.it.:   9.1
      thresh= 9.254E-06 alpha_mix =  0.700 |ddv_scf|^2 =  2.619E-11

      iter #   5 total cpu time :    81.5 secs   av.it.:   9.0
      thresh= 5.118E-07 alpha_mix =  0.700 |ddv_scf|^2 =  7.079E-13

     End of self-consistent calculation

     Convergence has been achieved 


     Representation #  2 modes #   3  4

     Self-consistent Calculation

      iter #   1 total cpu time :    81.7 secs   av.it.:   5.3
      thresh= 1.000E-02 alpha_mix =  0.700 |ddv_scf|^2 =  9.689E-06

      iter #   2 total cpu time :    82.1 secs   av.it.:   9.9
      thresh= 3.113E-04 alpha_mix =  0.700 |ddv_scf|^2 =  1.321E-05

      iter #   3 total cpu time :    82.4 secs   av.it.:   9.1
      thresh= 3.634E-04 alpha_mix =  0.700 |ddv_scf|^2 =  1.023E-08

      iter #   4 total cpu time :    82.7 secs   av.it.:   8.9
      thresh= 1.011E-05 alpha_mix =  0.700 |ddv_scf|^2 =  9.840E-11

      iter #   5 total cpu time :    83.0 secs   av.it.:   9.4
      thresh= 9.920E-07 alpha_mix =  0.700 |ddv_scf|^2 =  1.875E-12

      iter #   6 total cpu time :    83.5 secs   av.it.:   9.1
      thresh= 1.369E-07 alpha_mix =  0.700 |ddv_scf|^2 =  1.610E-14

     End of self-consistent calculation

     Convergence has been achieved 


     Representation #  3 modes #   5  6

     Self-consistent Calculation

      iter #   1 total cpu time :    83.7 secs   av.it.:   5.1
      thresh= 1.000E-02 alpha_mix =  0.700 |ddv_scf|^2 =  2.622E-06

      iter #   2 total cpu time :    84.1 secs   av.it.:   9.7
      thresh= 1.619E-04 alpha_mix =  0.700 |ddv_scf|^2 =  1.431E-06

      iter #   3 total cpu time :    84.4 secs   av.it.:   9.1
      thresh= 1.196E-04 alpha_mix =  0.700 |ddv_scf|^2 =  8.170E-09

      iter #   4 total cpu time :    84.7 secs   av.it.:   8.7
      thresh= 9.039E-06 alpha_mix =  0.700 |ddv_scf|^2 =  4.761E-11

      iter #   5 total cpu time :    85.0 secs   av.it.:   9.1
      thresh= 6.900E-07 alpha_mix =  0.700 |ddv_scf|^2 =  7.327E-13

     End of self-consistent calculation

     Convergence has been achieved 

     Number of q in the star =    6
     List of q in the star:
          1  -0.500000000  -1.000000000   0.000000000
          2   0.000000000   1.000000000   0.500000000
          3   0.000000000  -1.000000000  -0.500000000
          4   0.500000000   1.000000000   0.000000000
          5  -1.000000000  -0.500000000   0.000000000
          6   0.000000000  -0.500000000  -1.000000000

     Diagonalizing the dynamical matrix

     q = (   -0.500000000  -1.000000000   0.000000000 ) 

 **************************************************************************
     freq (    1) =       7.816538 [THz] =     260.731628 [cm-1]
     freq (    2) =       7.816538 [THz] =     260.731628 [cm-1]
     freq (    3) =      11.009610 [THz] =     367.241043 [cm-1]
     freq (    4) =      11.009610 [THz] =     367.241043 [cm-1]
     freq (    5) =      13.717106 [THz] =     457.553409 [cm-1]
     freq (    6) =      13.717106 [THz] =     457.553409 [cm-1]
 **************************************************************************

     init_run     :      0.54s CPU      0.63s WALL (       7 calls)
     electrons    :      4.74s CPU      5.13s WALL (       7 calls)

     Called by init_run:
     wfcinit      :      0.00s CPU      0.00s WALL (       7 calls)
     potinit      :      0.02s CPU      0.02s WALL (       7 calls)

     Called by electrons:
     c_bands      :      4.73s CPU      5.11s WALL (       7 calls)
     v_of_rho     :      0.01s CPU      0.01s WALL (       8 calls)
     newd         :      0.03s CPU      0.03s WALL (       8 calls)

     Called by c_bands:
     init_us_2    :      0.68s CPU      0.74s WALL (   17588 calls)
     cegterg      :      4.00s CPU      4.30s WALL (     796 calls)

     Called by sum_band:

     Called by *egterg:
     h_psi        :     43.75s CPU     47.17s WALL (  152252 calls)
     s_psi        :      5.85s CPU      6.19s WALL (  309224 calls)
     g_psi        :      0.03s CPU      0.03s WALL (    9268 calls)
     cdiaghg      :      0.47s CPU      0.53s WALL (   10064 calls)

     Called by h_psi:
     h_psi:pot    :     43.56s CPU     46.97s WALL (  152252 calls)
     h_psi:calbec :      4.56s CPU      4.97s WALL (  152252 calls)
     vloc_psi     :     35.79s CPU     38.61s WALL (  152252 calls)
     add_vuspsi   :      2.92s CPU      3.10s WALL (  152252 calls)

     General routines
     calbec       :      9.90s CPU     10.68s WALL (  345596 calls)
     fft          :      0.42s CPU      0.46s WALL (    5239 calls)
     ffts         :      0.13s CPU      0.14s WALL (    2748 calls)
     fftw         :     41.42s CPU     44.56s WALL ( 1378906 calls)
     davcio       :      0.33s CPU      0.36s WALL (   79045 calls)

     Parallel routines
     fft_scatter  :      9.36s CPU     10.70s WALL ( 1386893 calls)

     PHONON       :  1m19.05s CPU     1m24.99s WALL

     INITIALIZATION: 
     phq_setup    :      0.05s CPU      0.05s WALL (       8 calls)
     phq_init     :      2.12s CPU      2.16s WALL (       8 calls)

     phq_init     :      2.12s CPU      2.16s WALL (       8 calls)
     set_drhoc    :      0.29s CPU      0.30s WALL (      24 calls)
     init_vloc    :      0.01s CPU      0.01s WALL (       8 calls)
     init_us_1    :      0.49s CPU      0.56s WALL (       8 calls)
     newd         :      0.03s CPU      0.03s WALL (       8 calls)
     dvanqq       :      0.24s CPU      0.24s WALL (       8 calls)
     drho         :      1.07s CPU      1.10s WALL (       8 calls)

     DYNAMICAL MATRIX:
     dynmat0      :      0.57s CPU      0.58s WALL (       8 calls)
     phqscf       :     69.08s CPU     74.32s WALL (       8 calls)
     dynmatrix    :      0.02s CPU      0.02s WALL (       8 calls)

     phqscf       :     69.08s CPU     74.32s WALL (       8 calls)
     solve_linter :     68.29s CPU     73.46s WALL (      32 calls)
     drhodv       :      0.57s CPU      0.61s WALL (      32 calls)

     dynmat0      :      0.57s CPU      0.58s WALL (       8 calls)
     dynmat_us    :      0.34s CPU      0.35s WALL (       8 calls)
     d2ionq       :      0.01s CPU      0.01s WALL (       8 calls)
     dynmatcc     :      0.21s CPU      0.21s WALL (       8 calls)

     dynmat_us    :      0.34s CPU      0.35s WALL (       8 calls)
     addusdynmat  :      0.00s CPU      0.00s WALL (       8 calls)

     phqscf       :     69.08s CPU     74.32s WALL (       8 calls)
     solve_linter :     68.29s CPU     73.46s WALL (      32 calls)

     solve_linter :     68.29s CPU     73.46s WALL (      32 calls)
     dvqpsi_us    :      1.60s CPU      1.67s WALL (    2508 calls)
     ortho        :      1.00s CPU      1.07s WALL (   15550 calls)
     cgsolve      :     53.59s CPU     57.86s WALL (   15550 calls)
     incdrhoscf   :      4.61s CPU      4.93s WALL (   15550 calls)
     addusddens   :      1.21s CPU      1.24s WALL (     228 calls)
     vpsifft      :      3.37s CPU      3.58s WALL (   12922 calls)
     dv_of_drho   :      0.20s CPU      0.21s WALL (     295 calls)
     mix_pot      :      0.05s CPU      0.06s WALL (     201 calls)
     psymdvscf    :      0.80s CPU      0.82s WALL (     196 calls)
     newdq        :      1.28s CPU      1.42s WALL (     201 calls)
     adddvscf     :      0.46s CPU      0.50s WALL (   13042 calls)
     drhodvus     :      0.00s CPU      0.00s WALL (      32 calls)

     dvqpsi_us    :      1.60s CPU      1.67s WALL (    2508 calls)
     dvqpsi_us_on :      0.82s CPU      0.86s WALL (    2508 calls)

     cgsolve      :     53.59s CPU     57.86s WALL (   15550 calls)
     ch_psi       :     51.91s CPU     55.94s WALL (  141392 calls)

     ch_psi       :     51.91s CPU     55.94s WALL (  141392 calls)
     h_psi        :     43.75s CPU     47.17s WALL (  152252 calls)
     last         :      8.41s CPU      9.09s WALL (  141392 calls)

     h_psi        :     43.75s CPU     47.17s WALL (  152252 calls)
     add_vuspsi   :      2.92s CPU      3.10s WALL (  152252 calls)

     incdrhoscf   :      4.61s CPU      4.93s WALL (   15550 calls)
     addusdbec    :      0.64s CPU      0.67s WALL (   17998 calls)

     drhodvus     :      0.00s CPU      0.00s WALL (      32 calls)

      General routines
     calbec       :      9.90s CPU     10.68s WALL (  345596 calls)
     fft          :      0.42s CPU      0.46s WALL (    5239 calls)
     ffts         :      0.13s CPU      0.14s WALL (    2748 calls)
     fftw         :     41.42s CPU     44.56s WALL ( 1378906 calls)
     davcio       :      0.33s CPU      0.36s WALL (   79045 calls)
     write_rec    :      0.27s CPU      0.31s WALL (     233 calls)


     PHONON       :  1m19.05s CPU     1m24.99s WALL


   This run was terminated on:  17:51:47   9Nov2017            

=------------------------------------------------------------------------------=
   JOB DONE.
=------------------------------------------------------------------------------=
