
     Program PHONON v.6.1 (svn rev. 13369) starts on 10Nov2017 at 15:48: 3 

     This program is part of the open-source Quantum ESPRESSO suite
     for quantum simulation of materials; please cite
         "P. Giannozzi et al., J. Phys.:Condens. Matter 21 395502 (2009);
          URL http://www.quantum-espresso.org", 
     in publications or presentations arising from this work. More details at
     http://www.quantum-espresso.org/quote

     Parallel version (MPI), running on     4 processors
     R & G space division:  proc/nbgrp/npool/nimage =       4

     Reading data from directory:
     ./silicon.10.338.save

   Info: using nr1, nr2, nr3 values from input

   Info: using nr1, nr2, nr3 values from input

     IMPORTANT: XC functional enforced from input :
     Exchange-correlation      = SLA  PW   PBE  PBE ( 1  4  3  4 0 0)
     Any further DFT definition will be discarded
     Please, verify this is what you really want


     Parallelization info
     --------------------
     sticks:   dense  smooth     PW     G-vecs:    dense   smooth      PW
     Min         219     109     37                 4315     1545     284
     Max         220     110     38                 4316     1546     285
     Sum         877     439    151                17261     6183    1139



     Dynamical matrices for ( 4, 4, 4)  uniform grid of q-points
     (   8q-points):
       N         xq(1)         xq(2)         xq(3) 
       1   0.000000000   0.000000000   0.000000000
       2  -0.250000000   0.250000000  -0.250000000
       3   0.500000000  -0.500000000   0.500000000
       4   0.000000000   0.500000000   0.000000000
       5   0.750000000  -0.250000000   0.750000000
       6   0.500000000   0.000000000   0.500000000
       7   0.000000000  -1.000000000   0.000000000
       8  -0.500000000  -1.000000000   0.000000000

     Calculation of q =    0.0000000   0.0000000   0.0000000

                                                                                

     bravais-lattice index     =            2
     lattice parameter (alat)  =      10.3380  a.u.
     unit-cell volume          =     276.2165 (a.u.)^3
     number of atoms/cell      =            2
     number of atomic types    =            1
     kinetic-energy cut-off    =      30.0000  Ry
     charge density cut-off    =     240.0000  Ry
     convergence threshold     =      1.0E-12
     beta                      =       0.7000
     number of iterations used =            4
     Exchange-correlation      = SLA  PW   PBE  PBE ( 1  4  3  4 0 0)


     celldm(1)=   10.33800  celldm(2)=    0.00000  celldm(3)=    0.00000
     celldm(4)=    0.00000  celldm(5)=    0.00000  celldm(6)=    0.00000

     crystal axes: (cart. coord. in units of alat)
               a(1) = ( -0.5000  0.0000  0.5000 )  
               a(2) = (  0.0000  0.5000  0.5000 )  
               a(3) = ( -0.5000  0.5000  0.0000 )  

     reciprocal axes: (cart. coord. in units 2 pi/alat)
               b(1) = ( -1.0000 -1.0000  1.0000 )  
               b(2) = (  1.0000  1.0000  1.0000 )  
               b(3) = ( -1.0000  1.0000 -1.0000 )  


     Atoms inside the unit cell: 

     Cartesian axes

     site n.  atom      mass           positions (alat units)
        1     Si  28.0860   tau(    1) = (    0.00000    0.00000    0.00000  )
        2     Si  28.0860   tau(    2) = (    0.25000    0.25000    0.25000  )

     Computing dynamical matrix for 
                    q = (   0.0000000   0.0000000   0.0000000 )

     49 Sym.Ops. (with q -> -q+G )


     G cutoff =  649.7175  (   4315 G-vectors)     FFT grid: ( 40, 40, 40)
     G cutoff =  324.8587  (   1546 G-vectors)  smooth grid: ( 25, 25, 25)
     number of k points=    10

     PseudoPot. # 1 for Si read from file:
     /home/s1333534/quantum_espresso/qe-6.1/pseudo/si_pbe_v1.uspp.F.UPF.txt
     MD5 check sum: a056efeee980c13900f22a371efd63c1
     Pseudo is Ultrasoft + core correction, Zval =  4.0
     Generated by new atomic code, or converted to UPF format
     Using radial grid of  899 points,  6 beta functions with: 
                l(1) =   0
                l(2) =   0
                l(3) =   1
                l(4) =   1
                l(5) =   2
                l(6) =   2
     Q(r) pseudized with  8 coefficients,  rinner =    0.900   0.900   0.900
                                                       0.900   0.900

     Mode symmetry, O_h (m-3m)  point group:


     Electric field:
     Dielectric constant
     Born effective charges in two ways 


     Atomic displacements:
     There are   2 irreducible representations

     Representation     1      3 modes -T_2g G_25' G_5+  To be done

     Representation     2      3 modes -T_1u G_15  G_4-  To be done



     Alpha used in Ewald sum =   2.5000
     PHONON       :     0.96s CPU         1.29s WALL


     Electric Fields Calculation

      iter #   1 total cpu time :     2.4 secs   av.it.:   5.7
      thresh= 1.000E-02 alpha_mix =  0.700 |ddv_scf|^2 =  9.694E-08

      iter #   2 total cpu time :     3.2 secs   av.it.:  11.9
      thresh= 3.114E-05 alpha_mix =  0.700 |ddv_scf|^2 =  5.721E-09

      iter #   3 total cpu time :     4.0 secs   av.it.:  11.7
      thresh= 7.564E-06 alpha_mix =  0.700 |ddv_scf|^2 =  3.826E-10

      iter #   4 total cpu time :     4.8 secs   av.it.:  10.6
      thresh= 1.956E-06 alpha_mix =  0.700 |ddv_scf|^2 =  2.524E-12

      iter #   5 total cpu time :     5.4 secs   av.it.:  11.2
      thresh= 1.589E-07 alpha_mix =  0.700 |ddv_scf|^2 =  2.517E-15

     End of electric fields calculation

          Dielectric constant in cartesian axis 

          (      13.975243116      -0.000000000      -0.000000000 )
          (      -0.000000000      13.975243116       0.000000000 )
          (      -0.000000000      -0.000000000      13.975243116 )

          Effective charges (d Force / dE) in cartesian axis

           atom      1   Si 
      Ex  (       -0.03843        0.00000        0.00000 )
      Ey  (        0.00000       -0.03843        0.00000 )
      Ez  (        0.00000        0.00000       -0.03843 )
           atom      2   Si 
      Ex  (       -0.03843        0.00000        0.00000 )
      Ey  (        0.00000       -0.03843        0.00000 )
      Ez  (        0.00000       -0.00000       -0.03843 )


     Representation #  1 modes #   1  2  3

     Self-consistent Calculation

      iter #   1 total cpu time :     6.8 secs   av.it.:   5.1
      thresh= 1.000E-02 alpha_mix =  0.700 |ddv_scf|^2 =  1.714E-08

      iter #   2 total cpu time :     7.6 secs   av.it.:  11.8
      thresh= 1.309E-05 alpha_mix =  0.700 |ddv_scf|^2 =  7.009E-10

      iter #   3 total cpu time :     8.4 secs   av.it.:  11.3
      thresh= 2.647E-06 alpha_mix =  0.700 |ddv_scf|^2 =  4.768E-11

      iter #   4 total cpu time :     9.1 secs   av.it.:  10.4
      thresh= 6.905E-07 alpha_mix =  0.700 |ddv_scf|^2 =  1.179E-13

     End of self-consistent calculation

     Convergence has been achieved 


     Representation #  2 modes #   4  5  6

     Self-consistent Calculation

      iter #   1 total cpu time :    10.1 secs   av.it.:   5.2
      thresh= 1.000E-02 alpha_mix =  0.700 |ddv_scf|^2 =  1.351E-08

      iter #   2 total cpu time :    10.9 secs   av.it.:  11.8
      thresh= 1.163E-05 alpha_mix =  0.700 |ddv_scf|^2 =  7.951E-10

      iter #   3 total cpu time :    11.8 secs   av.it.:  11.4
      thresh= 2.820E-06 alpha_mix =  0.700 |ddv_scf|^2 =  4.933E-11

      iter #   4 total cpu time :    12.5 secs   av.it.:  11.5
      thresh= 7.023E-07 alpha_mix =  0.700 |ddv_scf|^2 =  1.911E-13

     End of self-consistent calculation

     Convergence has been achieved 

     Number of q in the star =    1
     List of q in the star:
          1   0.000000000   0.000000000   0.000000000

          Dielectric constant in cartesian axis 

          (      13.975243116      -0.000000000      -0.000000000 )
          (      -0.000000000      13.975243116       0.000000000 )
          (      -0.000000000      -0.000000000      13.975243116 )

          Effective charges (d Force / dE) in cartesian axis

           atom      1   Si 
      Ex  (       -0.03843        0.00000        0.00000 )
      Ey  (        0.00000       -0.03843        0.00000 )
      Ez  (        0.00000        0.00000       -0.03843 )
           atom      2   Si 
      Ex  (       -0.03843        0.00000        0.00000 )
      Ey  (        0.00000       -0.03843        0.00000 )
      Ez  (        0.00000       -0.00000       -0.03843 )

          Effective charges (d P / du) in cartesian axis 

           atom      1   Si 
      Px  (       -0.07255        0.00000        0.00000 )
      Py  (        0.00000       -0.07255       -0.00000 )
      Pz  (        0.00000        0.00000       -0.07255 )
           atom      2   Si 
      Px  (       -0.07255       -0.00000        0.00000 )
      Py  (        0.00000       -0.07255        0.00000 )
      Pz  (        0.00000       -0.00000       -0.07255 )

     Diagonalizing the dynamical matrix

     q = (    0.000000000   0.000000000   0.000000000 ) 

 **************************************************************************
     freq (    1) =      -0.476070 [THz] =     -15.880001 [cm-1]
     freq (    2) =      -0.476070 [THz] =     -15.880001 [cm-1]
     freq (    3) =      -0.476070 [THz] =     -15.880001 [cm-1]
     freq (    4) =      15.048419 [THz] =     501.961226 [cm-1]
     freq (    5) =      15.048419 [THz] =     501.961226 [cm-1]
     freq (    6) =      15.048419 [THz] =     501.961226 [cm-1]
 **************************************************************************

     Mode symmetry, O_h (m-3m)  point group:

     freq (  1 -  3) =        -15.9  [cm-1]   --> T_1u G_15  G_4- I  
     freq (  4 -  6) =        502.0  [cm-1]   --> T_2g G_25' G_5+ R  

     Calculation of q =   -0.2500000   0.2500000  -0.2500000

   Info: using nr1, nr2, nr3 values from input

   Info: using nr1, nr2, nr3 values from input

     Parallelization info
     --------------------
     sticks:   dense  smooth     PW     G-vecs:    dense   smooth      PW
     Min         218     109     37                 4315     1545     309
     Max         220     110     38                 4316     1546     312
     Sum         877     439    151                17261     6183    1243



     bravais-lattice index     =            2
     lattice parameter (alat)  =      10.3380  a.u.
     unit-cell volume          =     276.2165 (a.u.)^3
     number of atoms/cell      =            2
     number of atomic types    =            1
     number of electrons       =         8.00
     number of Kohn-Sham states=            4
     kinetic-energy cutoff     =      30.0000  Ry
     charge density cutoff     =     240.0000  Ry
     Exchange-correlation      = SLA  PW   PBE  PBE ( 1  4  3  4 0 0)

     celldm(1)=  10.338000  celldm(2)=   0.000000  celldm(3)=   0.000000
     celldm(4)=   0.000000  celldm(5)=   0.000000  celldm(6)=   0.000000

     crystal axes: (cart. coord. in units of alat)
               a(1) = (  -0.500000   0.000000   0.500000 )  
               a(2) = (   0.000000   0.500000   0.500000 )  
               a(3) = (  -0.500000   0.500000   0.000000 )  

     reciprocal axes: (cart. coord. in units 2 pi/alat)
               b(1) = ( -1.000000 -1.000000  1.000000 )  
               b(2) = (  1.000000  1.000000  1.000000 )  
               b(3) = ( -1.000000  1.000000 -1.000000 )  


     PseudoPot. # 1 for Si read from file:
     /home/s1333534/quantum_espresso/qe-6.1/pseudo/si_pbe_v1.uspp.F.UPF.txt
     MD5 check sum: a056efeee980c13900f22a371efd63c1
     Pseudo is Ultrasoft + core correction, Zval =  4.0
     Generated by new atomic code, or converted to UPF format
     Using radial grid of  899 points,  6 beta functions with: 
                l(1) =   0
                l(2) =   0
                l(3) =   1
                l(4) =   1
                l(5) =   2
                l(6) =   2
     Q(r) pseudized with  8 coefficients,  rinner =    0.900   0.900   0.900
                                                       0.900   0.900

     atomic species   valence    mass     pseudopotential
        Si             4.00    28.08600     Si( 1.00)

     48 Sym. Ops., with inversion, found



   Cartesian axes

     site n.     atom                  positions (alat units)
         1           Si  tau(   1) = (   0.0000000   0.0000000   0.0000000  )
         2           Si  tau(   2) = (   0.2500000   0.2500000   0.2500000  )

     number of k points=   120

     Number of k-points >= 100: set verbosity='high' to print them.

     Dense  grid:    17261 G-vectors     FFT dimensions: (  40,  40,  40)

     Smooth grid:     6183 G-vectors     FFT dimensions: (  25,  25,  25)

     Estimated max dynamical RAM per process >       1.78MB

     Estimated total allocated dynamical RAM >       7.14MB

     The potential is recalculated from file :
     ./_ph0/silicon.10.338.save/charge-density.dat

     Starting wfc are    8 atomic wfcs

     Band Structure Calculation
     Davidson diagonalization with overlap

     ethr =  1.25E-10,  avg # of iterations = 12.2

     total cpu time spent up to now is        1.4 secs

     End of band structure calculation

     Number of k-points >= 100: set verbosity='high' to print the bands.

     highest occupied level (ev):     5.6834

     Writing output data file silicon.10.338.save

                                                                                

     bravais-lattice index     =            2
     lattice parameter (alat)  =      10.3380  a.u.
     unit-cell volume          =     276.2165 (a.u.)^3
     number of atoms/cell      =            2
     number of atomic types    =            1
     kinetic-energy cut-off    =      30.0000  Ry
     charge density cut-off    =     240.0000  Ry
     convergence threshold     =      1.0E-12
     beta                      =       0.7000
     number of iterations used =            4
     Exchange-correlation      = SLA  PW   PBE  PBE ( 1  4  3  4 0 0)


     celldm(1)=   10.33800  celldm(2)=    0.00000  celldm(3)=    0.00000
     celldm(4)=    0.00000  celldm(5)=    0.00000  celldm(6)=    0.00000

     crystal axes: (cart. coord. in units of alat)
               a(1) = ( -0.5000  0.0000  0.5000 )  
               a(2) = (  0.0000  0.5000  0.5000 )  
               a(3) = ( -0.5000  0.5000  0.0000 )  

     reciprocal axes: (cart. coord. in units 2 pi/alat)
               b(1) = ( -1.0000 -1.0000  1.0000 )  
               b(2) = (  1.0000  1.0000  1.0000 )  
               b(3) = ( -1.0000  1.0000 -1.0000 )  


     Atoms inside the unit cell: 

     Cartesian axes

     site n.  atom      mass           positions (alat units)
        1     Si  28.0860   tau(    1) = (    0.00000    0.00000    0.00000  )
        2     Si  28.0860   tau(    2) = (    0.25000    0.25000    0.25000  )

     Computing dynamical matrix for 
                    q = (  -0.2500000   0.2500000  -0.2500000 )

      6 Sym.Ops. (no q -> -q+G )


     G cutoff =  649.7175  (   4315 G-vectors)     FFT grid: ( 40, 40, 40)
     G cutoff =  324.8587  (   1546 G-vectors)  smooth grid: ( 25, 25, 25)
     number of k points=   120

     PseudoPot. # 1 for Si read from file:
     /home/s1333534/quantum_espresso/qe-6.1/pseudo/si_pbe_v1.uspp.F.UPF.txt
     MD5 check sum: a056efeee980c13900f22a371efd63c1
     Pseudo is Ultrasoft + core correction, Zval =  4.0
     Generated by new atomic code, or converted to UPF format
     Using radial grid of  899 points,  6 beta functions with: 
                l(1) =   0
                l(2) =   0
                l(3) =   1
                l(4) =   1
                l(5) =   2
                l(6) =   2
     Q(r) pseudized with  8 coefficients,  rinner =    0.900   0.900   0.900
                                                       0.900   0.900

     Mode symmetry, C_3v (3m)   point group:


     Atomic displacements:
     There are   4 irreducible representations

     Representation     1      1 modes -A_1  L_1  To be done

     Representation     2      1 modes -A_1  L_1  To be done

     Representation     3      2 modes -E    L_3  To be done

     Representation     4      2 modes -E    L_3  To be done



     Alpha used in Ewald sum =   2.5000
     PHONON       :    12.05s CPU        15.99s WALL



     Representation #  1 mode #   1

     Self-consistent Calculation

      iter #   1 total cpu time :    16.4 secs   av.it.:   5.9
      thresh= 1.000E-02 alpha_mix =  0.700 |ddv_scf|^2 =  3.103E-04

      iter #   2 total cpu time :    17.1 secs   av.it.:   9.2
      thresh= 1.762E-03 alpha_mix =  0.700 |ddv_scf|^2 =  4.731E-03

      iter #   3 total cpu time :    17.6 secs   av.it.:   7.1
      thresh= 6.879E-03 alpha_mix =  0.700 |ddv_scf|^2 =  1.955E-07

      iter #   4 total cpu time :    18.3 secs   av.it.:   9.7
      thresh= 4.421E-05 alpha_mix =  0.700 |ddv_scf|^2 =  1.290E-08

      iter #   5 total cpu time :    19.0 secs   av.it.:   9.7
      thresh= 1.136E-05 alpha_mix =  0.700 |ddv_scf|^2 =  2.395E-10

      iter #   6 total cpu time :    19.6 secs   av.it.:   9.9
      thresh= 1.548E-06 alpha_mix =  0.700 |ddv_scf|^2 =  5.711E-10

      iter #   7 total cpu time :    20.2 secs   av.it.:   7.8
      thresh= 2.390E-06 alpha_mix =  0.700 |ddv_scf|^2 =  3.835E-11

      iter #   8 total cpu time :    20.8 secs   av.it.:   9.4
      thresh= 6.193E-07 alpha_mix =  0.700 |ddv_scf|^2 =  4.133E-13

     End of self-consistent calculation

     Convergence has been achieved 


     Representation #  2 mode #   2

     Self-consistent Calculation

      iter #   1 total cpu time :    21.4 secs   av.it.:   5.9
      thresh= 1.000E-02 alpha_mix =  0.700 |ddv_scf|^2 =  3.103E-04

      iter #   2 total cpu time :    22.1 secs   av.it.:   9.2
      thresh= 1.762E-03 alpha_mix =  0.700 |ddv_scf|^2 =  4.731E-03

      iter #   3 total cpu time :    22.7 secs   av.it.:   7.1
      thresh= 6.879E-03 alpha_mix =  0.700 |ddv_scf|^2 =  1.955E-07

      iter #   4 total cpu time :    23.4 secs   av.it.:   9.7
      thresh= 4.421E-05 alpha_mix =  0.700 |ddv_scf|^2 =  1.290E-08

      iter #   5 total cpu time :    24.1 secs   av.it.:   9.7
      thresh= 1.136E-05 alpha_mix =  0.700 |ddv_scf|^2 =  2.395E-10

      iter #   6 total cpu time :    24.7 secs   av.it.:   9.9
      thresh= 1.548E-06 alpha_mix =  0.700 |ddv_scf|^2 =  5.711E-10

      iter #   7 total cpu time :    25.4 secs   av.it.:   7.8
      thresh= 2.390E-06 alpha_mix =  0.700 |ddv_scf|^2 =  3.835E-11

      iter #   8 total cpu time :    25.9 secs   av.it.:   9.4
      thresh= 6.193E-07 alpha_mix =  0.700 |ddv_scf|^2 =  4.133E-13

     End of self-consistent calculation

     Convergence has been achieved 


     Representation #  3 modes #   3  4

     Self-consistent Calculation

      iter #   1 total cpu time :    27.0 secs   av.it.:   5.2
      thresh= 1.000E-02 alpha_mix =  0.700 |ddv_scf|^2 =  4.820E-08

      iter #   2 total cpu time :    28.3 secs   av.it.:  11.6
      thresh= 2.195E-05 alpha_mix =  0.700 |ddv_scf|^2 =  3.096E-09

      iter #   3 total cpu time :    29.7 secs   av.it.:  11.2
      thresh= 5.565E-06 alpha_mix =  0.700 |ddv_scf|^2 =  1.637E-10

      iter #   4 total cpu time :    30.9 secs   av.it.:  11.1
      thresh= 1.279E-06 alpha_mix =  0.700 |ddv_scf|^2 =  6.270E-13

     End of self-consistent calculation

     Convergence has been achieved 


     Representation #  4 modes #   5  6

     Self-consistent Calculation

      iter #   1 total cpu time :    31.9 secs   av.it.:   5.2
      thresh= 1.000E-02 alpha_mix =  0.700 |ddv_scf|^2 =  4.821E-08

      iter #   2 total cpu time :    33.2 secs   av.it.:  11.7
      thresh= 2.196E-05 alpha_mix =  0.700 |ddv_scf|^2 =  3.096E-09

      iter #   3 total cpu time :    34.5 secs   av.it.:  11.4
      thresh= 5.565E-06 alpha_mix =  0.700 |ddv_scf|^2 =  1.637E-10

      iter #   4 total cpu time :    35.7 secs   av.it.:  11.2
      thresh= 1.279E-06 alpha_mix =  0.700 |ddv_scf|^2 =  6.303E-13

     End of self-consistent calculation

     Convergence has been achieved 

     Number of q in the star =    8
     List of q in the star:
          1  -0.250000000   0.250000000  -0.250000000
          2   0.250000000  -0.250000000  -0.250000000
          3   0.250000000  -0.250000000   0.250000000
          4   0.250000000   0.250000000   0.250000000
          5  -0.250000000  -0.250000000  -0.250000000
          6  -0.250000000  -0.250000000   0.250000000
          7  -0.250000000   0.250000000   0.250000000
          8   0.250000000   0.250000000  -0.250000000

     Diagonalizing the dynamical matrix

     q = (   -0.250000000   0.250000000  -0.250000000 ) 

 **************************************************************************
     freq (    1) =       2.788041 [THz] =      92.999027 [cm-1]
     freq (    2) =       2.788041 [THz] =      92.999027 [cm-1]
     freq (    3) =       6.721005 [THz] =     224.188592 [cm-1]
     freq (    4) =      14.200703 [THz] =     473.684463 [cm-1]
     freq (    5) =      14.470937 [THz] =     482.698509 [cm-1]
     freq (    6) =      14.470937 [THz] =     482.698509 [cm-1]
 **************************************************************************

     Mode symmetry, C_3v (3m)   point group:

     freq (  1 -  2) =         93.0  [cm-1]   --> E    L_3           
     freq (  3 -  3) =        224.2  [cm-1]   --> A_1  L_1           
     freq (  4 -  4) =        473.7  [cm-1]   --> A_1  L_1           
     freq (  5 -  6) =        482.7  [cm-1]   --> E    L_3           

     Calculation of q =    0.5000000  -0.5000000   0.5000000

   Info: using nr1, nr2, nr3 values from input

   Info: using nr1, nr2, nr3 values from input

     Parallelization info
     --------------------
     sticks:   dense  smooth     PW     G-vecs:    dense   smooth      PW
     Min         219     109     40                 4315     1545     351
     Max         220     110     41                 4316     1546     354
     Sum         877     439    163                17261     6183    1411



     bravais-lattice index     =            2
     lattice parameter (alat)  =      10.3380  a.u.
     unit-cell volume          =     276.2165 (a.u.)^3
     number of atoms/cell      =            2
     number of atomic types    =            1
     number of electrons       =         8.00
     number of Kohn-Sham states=            4
     kinetic-energy cutoff     =      30.0000  Ry
     charge density cutoff     =     240.0000  Ry
     Exchange-correlation      = SLA  PW   PBE  PBE ( 1  4  3  4 0 0)

     celldm(1)=  10.338000  celldm(2)=   0.000000  celldm(3)=   0.000000
     celldm(4)=   0.000000  celldm(5)=   0.000000  celldm(6)=   0.000000

     crystal axes: (cart. coord. in units of alat)
               a(1) = (  -0.500000   0.000000   0.500000 )  
               a(2) = (   0.000000   0.500000   0.500000 )  
               a(3) = (  -0.500000   0.500000   0.000000 )  

     reciprocal axes: (cart. coord. in units 2 pi/alat)
               b(1) = ( -1.000000 -1.000000  1.000000 )  
               b(2) = (  1.000000  1.000000  1.000000 )  
               b(3) = ( -1.000000  1.000000 -1.000000 )  


     PseudoPot. # 1 for Si read from file:
     /home/s1333534/quantum_espresso/qe-6.1/pseudo/si_pbe_v1.uspp.F.UPF.txt
     MD5 check sum: a056efeee980c13900f22a371efd63c1
     Pseudo is Ultrasoft + core correction, Zval =  4.0
     Generated by new atomic code, or converted to UPF format
     Using radial grid of  899 points,  6 beta functions with: 
                l(1) =   0
                l(2) =   0
                l(3) =   1
                l(4) =   1
                l(5) =   2
                l(6) =   2
     Q(r) pseudized with  8 coefficients,  rinner =    0.900   0.900   0.900
                                                       0.900   0.900

     atomic species   valence    mass     pseudopotential
        Si             4.00    28.08600     Si( 1.00)

     48 Sym. Ops., with inversion, found



   Cartesian axes

     site n.     atom                  positions (alat units)
         1           Si  tau(   1) = (   0.0000000   0.0000000   0.0000000  )
         2           Si  tau(   2) = (   0.2500000   0.2500000   0.2500000  )

     number of k points=    60
                       cart. coord. in units 2pi/alat
        k(    1) = (  -0.1250000   0.1250000   0.1250000), wk =   0.0468750
        k(    2) = (   0.3750000  -0.3750000   0.6250000), wk =   0.0000000
        k(    3) = (  -0.3750000   0.3750000  -0.1250000), wk =   0.0468750
        k(    4) = (   0.1250000  -0.1250000   0.3750000), wk =   0.0000000
        k(    5) = (   0.3750000  -0.3750000   0.6250000), wk =   0.0468750
        k(    6) = (   0.8750000  -0.8750000   1.1250000), wk =   0.0000000
        k(    7) = (   0.1250000  -0.1250000   0.3750000), wk =   0.0468750
        k(    8) = (   0.6250000  -0.6250000   0.8750000), wk =   0.0000000
        k(    9) = (  -0.1250000   0.6250000   0.1250000), wk =   0.0937500
        k(   10) = (   0.3750000   0.1250000   0.6250000), wk =   0.0000000
        k(   11) = (   0.6250000  -0.1250000   0.8750000), wk =   0.0937500
        k(   12) = (   1.1250000  -0.6250000   1.3750000), wk =   0.0000000
        k(   13) = (   0.3750000   0.1250000   0.6250000), wk =   0.0937500
        k(   14) = (   0.8750000  -0.3750000   1.1250000), wk =   0.0000000
        k(   15) = (  -0.1250000  -0.8750000   0.1250000), wk =   0.0937500
        k(   16) = (   0.3750000  -1.3750000   0.6250000), wk =   0.0000000
        k(   17) = (  -0.3750000   0.3750000   0.3750000), wk =   0.0468750
        k(   18) = (   0.1250000  -0.1250000   0.8750000), wk =   0.0000000
        k(   19) = (   0.3750000  -0.3750000   1.1250000), wk =   0.0468750
        k(   20) = (   0.8750000  -0.8750000   1.6250000), wk =   0.0000000
        k(   21) = (   0.1250000  -0.1250000   0.1250000), wk =   0.0156250
        k(   22) = (   0.6250000  -0.6250000   0.6250000), wk =   0.0000000
        k(   23) = (  -0.3750000  -0.3750000  -0.1250000), wk =   0.0937500
        k(   24) = (   0.1250000  -0.8750000   0.3750000), wk =   0.0000000
        k(   25) = (  -0.1250000  -0.3750000   0.3750000), wk =   0.0468750
        k(   26) = (   0.3750000  -0.8750000   0.8750000), wk =   0.0000000
        k(   27) = (   0.3750000   0.3750000   0.6250000), wk =   0.0937500
        k(   28) = (   0.8750000  -0.1250000   1.1250000), wk =   0.0000000
        k(   29) = (   0.6250000   0.3750000  -0.3750000), wk =   0.0468750
        k(   30) = (   1.1250000  -0.1250000   0.1250000), wk =   0.0000000
        k(   31) = (   0.1250000   0.1250000   0.3750000), wk =   0.0937500
        k(   32) = (   0.6250000  -0.3750000   0.8750000), wk =   0.0000000
        k(   33) = (   0.3750000   0.1250000  -0.1250000), wk =   0.0468750
        k(   34) = (   0.8750000  -0.3750000   0.3750000), wk =   0.0000000
        k(   35) = (  -0.1250000  -0.6250000  -0.1250000), wk =   0.0468750
        k(   36) = (   0.3750000  -1.1250000   0.3750000), wk =   0.0000000
        k(   37) = (   0.1250000  -0.6250000   0.1250000), wk =   0.0468750
        k(   38) = (   0.6250000  -1.1250000   0.6250000), wk =   0.0000000
        k(   39) = (   0.6250000   0.1250000   0.8750000), wk =   0.0937500
        k(   40) = (   1.1250000  -0.3750000   1.3750000), wk =   0.0000000
        k(   41) = (  -0.8750000   0.1250000   0.6250000), wk =   0.0937500
        k(   42) = (  -0.3750000  -0.3750000   1.1250000), wk =   0.0000000
        k(   43) = (   0.8750000   0.1250000  -0.6250000), wk =   0.0937500
        k(   44) = (   1.3750000  -0.3750000  -0.1250000), wk =   0.0000000
        k(   45) = (   0.3750000  -0.1250000   0.6250000), wk =   0.0937500
        k(   46) = (   0.8750000  -0.6250000   1.1250000), wk =   0.0000000
        k(   47) = (  -0.6250000  -0.1250000   0.3750000), wk =   0.0937500
        k(   48) = (  -0.1250000  -0.6250000   0.8750000), wk =   0.0000000
        k(   49) = (   0.6250000  -0.1250000  -0.3750000), wk =   0.0937500
        k(   50) = (   1.1250000  -0.6250000   0.1250000), wk =   0.0000000
        k(   51) = (  -0.1250000   0.8750000  -0.1250000), wk =   0.0468750
        k(   52) = (   0.3750000   0.3750000   0.3750000), wk =   0.0000000
        k(   53) = (   0.1250000   0.8750000   0.1250000), wk =   0.0468750
        k(   54) = (   0.6250000   0.3750000   0.6250000), wk =   0.0000000
        k(   55) = (   0.3750000  -0.3750000   0.3750000), wk =   0.0156250
        k(   56) = (   0.8750000  -0.8750000   0.8750000), wk =   0.0000000
        k(   57) = (   0.3750000   0.3750000   1.1250000), wk =   0.0937500
        k(   58) = (   0.8750000  -0.1250000   1.6250000), wk =   0.0000000
        k(   59) = (   1.1250000   0.3750000  -0.3750000), wk =   0.0468750
        k(   60) = (   1.6250000  -0.1250000   0.1250000), wk =   0.0000000

     Dense  grid:    17261 G-vectors     FFT dimensions: (  40,  40,  40)

     Smooth grid:     6183 G-vectors     FFT dimensions: (  25,  25,  25)

     Estimated max dynamical RAM per process >       1.78MB

     Estimated total allocated dynamical RAM >       7.14MB

     The potential is recalculated from file :
     ./_ph0/silicon.10.338.save/charge-density.dat

     Starting wfc are    8 atomic wfcs

     Band Structure Calculation
     Davidson diagonalization with overlap

     ethr =  1.25E-10,  avg # of iterations = 12.2

     total cpu time spent up to now is        2.4 secs

     End of band structure calculation

          k =-0.1250 0.1250 0.1250 (   770 PWs)   bands (ev):

    -5.6426   4.3741   5.6834   5.6834

          k = 0.3750-0.3750 0.6250 (   767 PWs)   bands (ev):

    -3.4806  -0.6895   3.7206   4.4339

          k =-0.3750 0.3750-0.1250 (   773 PWs)   bands (ev):

    -4.6178   1.3846   3.7006   5.2038

          k = 0.1250-0.1250 0.3750 (   774 PWs)   bands (ev):

    -5.1156   2.7589   4.6774   4.7405

          k = 0.3750-0.3750 0.6250 (   767 PWs)   bands (ev):

    -3.4806  -0.6895   3.7206   4.4339

          k = 0.8750-0.8750 1.1250 (   770 PWs)   bands (ev):

    -5.6426   4.3741   5.6834   5.6834

          k = 0.1250-0.1250 0.3750 (   774 PWs)   bands (ev):

    -5.1156   2.7589   4.6774   4.7405

          k = 0.6250-0.6250 0.8750 (   773 PWs)   bands (ev):

    -4.6178   1.3846   3.7006   5.2038

          k =-0.1250 0.6250 0.1250 (   768 PWs)   bands (ev):

    -4.0860   1.0492   3.3530   3.8049

          k = 0.3750 0.1250 0.6250 (   768 PWs)   bands (ev):

    -3.6714   0.1784   2.7120   4.0791

          k = 0.6250-0.1250 0.8750 (   757 PWs)   bands (ev):

    -2.4495  -0.9098   2.0018   3.0763

          k = 1.1250-0.6250 1.3750 (   773 PWs)   bands (ev):

    -4.6178   1.3846   3.7006   5.2038

          k = 0.3750 0.1250 0.6250 (   768 PWs)   bands (ev):

    -3.6714   0.1784   2.7120   4.0791

          k = 0.8750-0.3750 1.1250 (   768 PWs)   bands (ev):

    -4.0860   1.0492   3.3530   3.8049

          k =-0.1250-0.8750 0.1250 (   762 PWs)   bands (ev):

    -2.6165  -0.8129   2.6104   3.3387

          k = 0.3750-1.3750 0.6250 (   767 PWs)   bands (ev):

    -3.4806  -0.6895   3.7206   4.4339

          k =-0.3750 0.3750 0.3750 (   763 PWs)   bands (ev):

    -4.1857   0.0973   4.8974   4.8974

          k = 0.1250-0.1250 0.8750 (   762 PWs)   bands (ev):

    -2.6165  -0.8129   2.6104   3.3387

          k = 0.3750-0.3750 1.1250 (   767 PWs)   bands (ev):

    -2.9857  -0.6065   2.0593   4.1175

          k = 0.8750-0.8750 1.6250 (   768 PWs)   bands (ev):

    -4.0860   1.0492   3.3530   3.8049

          k = 0.1250-0.1250 0.1250 (   770 PWs)   bands (ev):

    -5.6426   4.3741   5.6834   5.6834

          k = 0.6250-0.6250 0.6250 (   763 PWs)   bands (ev):

    -4.1857   0.0973   4.8974   4.8974

          k =-0.3750-0.3750-0.1250 (   773 PWs)   bands (ev):

    -4.6178   1.3846   3.7006   5.2038

          k = 0.1250-0.8750 0.3750 (   757 PWs)   bands (ev):

    -2.4495  -0.9098   2.0018   3.0763

          k =-0.1250-0.3750 0.3750 (   773 PWs)   bands (ev):

    -4.6178   1.3846   3.7006   5.2038

          k = 0.3750-0.8750 0.8750 (   768 PWs)   bands (ev):

    -4.0860   1.0492   3.3530   3.8049

          k = 0.3750 0.3750 0.6250 (   767 PWs)   bands (ev):

    -3.4806  -0.6895   3.7206   4.4339

          k = 0.8750-0.1250 1.1250 (   762 PWs)   bands (ev):

    -2.6165  -0.8129   2.6104   3.3387

          k = 0.6250 0.3750-0.3750 (   767 PWs)   bands (ev):

    -3.4806  -0.6895   3.7206   4.4339

          k = 1.1250-0.1250 0.1250 (   762 PWs)   bands (ev):

    -2.6165  -0.8129   2.6104   3.3387

          k = 0.1250 0.1250 0.3750 (   774 PWs)   bands (ev):

    -5.1156   2.7589   4.6774   4.7405

          k = 0.6250-0.3750 0.8750 (   768 PWs)   bands (ev):

    -3.6714   0.1784   2.7120   4.0791

          k = 0.3750 0.1250-0.1250 (   774 PWs)   bands (ev):

    -5.1156   2.7589   4.6774   4.7405

          k = 0.8750-0.3750 0.3750 (   767 PWs)   bands (ev):

    -2.9857  -0.6065   2.0593   4.1175

          k =-0.1250-0.6250-0.1250 (   768 PWs)   bands (ev):

    -4.0860   1.0492   3.3530   3.8049

          k = 0.3750-1.1250 0.3750 (   767 PWs)   bands (ev):

    -2.9857  -0.6065   2.0593   4.1175

          k = 0.1250-0.6250 0.1250 (   768 PWs)   bands (ev):

    -4.0860   1.0492   3.3530   3.8049

          k = 0.6250-1.1250 0.6250 (   773 PWs)   bands (ev):

    -4.6178   1.3846   3.7006   5.2038

          k = 0.6250 0.1250 0.8750 (   757 PWs)   bands (ev):

    -2.4495  -0.9098   2.0018   3.0763

          k = 1.1250-0.3750 1.3750 (   768 PWs)   bands (ev):

    -3.6714   0.1784   2.7120   4.0791

          k =-0.8750 0.1250 0.6250 (   757 PWs)   bands (ev):

    -2.4495  -0.9098   2.0018   3.0763

          k =-0.3750-0.3750 1.1250 (   767 PWs)   bands (ev):

    -2.9857  -0.6065   2.0593   4.1175

          k = 0.8750 0.1250-0.6250 (   757 PWs)   bands (ev):

    -2.4495  -0.9098   2.0018   3.0763

          k = 1.3750-0.3750-0.1250 (   768 PWs)   bands (ev):

    -3.6714   0.1784   2.7120   4.0791

          k = 0.3750-0.1250 0.6250 (   768 PWs)   bands (ev):

    -3.6714   0.1784   2.7120   4.0791

          k = 0.8750-0.6250 1.1250 (   774 PWs)   bands (ev):

    -5.1156   2.7589   4.6774   4.7405

          k =-0.6250-0.1250 0.3750 (   768 PWs)   bands (ev):

    -3.6714   0.1784   2.7120   4.0791

          k =-0.1250-0.6250 0.8750 (   757 PWs)   bands (ev):

    -2.4495  -0.9098   2.0018   3.0763

          k = 0.6250-0.1250-0.3750 (   768 PWs)   bands (ev):

    -3.6714   0.1784   2.7120   4.0791

          k = 1.1250-0.6250 0.1250 (   757 PWs)   bands (ev):

    -2.4495  -0.9098   2.0018   3.0763

          k =-0.1250 0.8750-0.1250 (   762 PWs)   bands (ev):

    -2.6165  -0.8129   2.6104   3.3387

          k = 0.3750 0.3750 0.3750 (   763 PWs)   bands (ev):

    -4.1857   0.0973   4.8974   4.8974

          k = 0.1250 0.8750 0.1250 (   762 PWs)   bands (ev):

    -2.6165  -0.8129   2.6104   3.3387

          k = 0.6250 0.3750 0.6250 (   767 PWs)   bands (ev):

    -3.4806  -0.6895   3.7206   4.4339

          k = 0.3750-0.3750 0.3750 (   763 PWs)   bands (ev):

    -4.1857   0.0973   4.8974   4.8974

          k = 0.8750-0.8750 0.8750 (   770 PWs)   bands (ev):

    -5.6426   4.3741   5.6834   5.6834

          k = 0.3750 0.3750 1.1250 (   767 PWs)   bands (ev):

    -2.9857  -0.6065   2.0593   4.1175

          k = 0.8750-0.1250 1.6250 (   757 PWs)   bands (ev):

    -2.4495  -0.9098   2.0018   3.0763

          k = 1.1250 0.3750-0.3750 (   767 PWs)   bands (ev):

    -2.9857  -0.6065   2.0593   4.1175

          k = 1.6250-0.1250 0.1250 (   774 PWs)   bands (ev):

    -5.1156   2.7589   4.6774   4.7405

     highest occupied level (ev):     5.6834

     Writing output data file silicon.10.338.save

                                                                                

     bravais-lattice index     =            2
     lattice parameter (alat)  =      10.3380  a.u.
     unit-cell volume          =     276.2165 (a.u.)^3
     number of atoms/cell      =            2
     number of atomic types    =            1
     kinetic-energy cut-off    =      30.0000  Ry
     charge density cut-off    =     240.0000  Ry
     convergence threshold     =      1.0E-12
     beta                      =       0.7000
     number of iterations used =            4
     Exchange-correlation      = SLA  PW   PBE  PBE ( 1  4  3  4 0 0)


     celldm(1)=   10.33800  celldm(2)=    0.00000  celldm(3)=    0.00000
     celldm(4)=    0.00000  celldm(5)=    0.00000  celldm(6)=    0.00000

     crystal axes: (cart. coord. in units of alat)
               a(1) = ( -0.5000  0.0000  0.5000 )  
               a(2) = (  0.0000  0.5000  0.5000 )  
               a(3) = ( -0.5000  0.5000  0.0000 )  

     reciprocal axes: (cart. coord. in units 2 pi/alat)
               b(1) = ( -1.0000 -1.0000  1.0000 )  
               b(2) = (  1.0000  1.0000  1.0000 )  
               b(3) = ( -1.0000  1.0000 -1.0000 )  


     Atoms inside the unit cell: 

     Cartesian axes

     site n.  atom      mass           positions (alat units)
        1     Si  28.0860   tau(    1) = (    0.00000    0.00000    0.00000  )
        2     Si  28.0860   tau(    2) = (    0.25000    0.25000    0.25000  )

     Computing dynamical matrix for 
                    q = (   0.5000000  -0.5000000   0.5000000 )

     13 Sym.Ops. (with q -> -q+G )


     G cutoff =  649.7175  (   4316 G-vectors)     FFT grid: ( 40, 40, 40)
     G cutoff =  324.8587  (   1546 G-vectors)  smooth grid: ( 25, 25, 25)
     number of k points=    60

     PseudoPot. # 1 for Si read from file:
     /home/s1333534/quantum_espresso/qe-6.1/pseudo/si_pbe_v1.uspp.F.UPF.txt
     MD5 check sum: a056efeee980c13900f22a371efd63c1
     Pseudo is Ultrasoft + core correction, Zval =  4.0
     Generated by new atomic code, or converted to UPF format
     Using radial grid of  899 points,  6 beta functions with: 
                l(1) =   0
                l(2) =   0
                l(3) =   1
                l(4) =   1
                l(5) =   2
                l(6) =   2
     Q(r) pseudized with  8 coefficients,  rinner =    0.900   0.900   0.900
                                                       0.900   0.900


     Atomic displacements:
     There are   4 irreducible representations

     Representation     1      1 modes -  To be done

     Representation     2      1 modes -  To be done

     Representation     3      2 modes -  To be done

     Representation     4      2 modes -  To be done



     Alpha used in Ewald sum =   2.5000
     PHONON       :    29.58s CPU        38.04s WALL



     Representation #  1 mode #   1

     Self-consistent Calculation

      iter #   1 total cpu time :    38.4 secs   av.it.:   5.1
      thresh= 1.000E-02 alpha_mix =  0.700 |ddv_scf|^2 =  3.046E-06

      iter #   2 total cpu time :    38.8 secs   av.it.:  10.1
      thresh= 1.745E-04 alpha_mix =  0.700 |ddv_scf|^2 =  2.802E-06

      iter #   3 total cpu time :    39.2 secs   av.it.:   9.4
      thresh= 1.674E-04 alpha_mix =  0.700 |ddv_scf|^2 =  1.683E-09

      iter #   4 total cpu time :    39.6 secs   av.it.:   9.6
      thresh= 4.102E-06 alpha_mix =  0.700 |ddv_scf|^2 =  1.664E-11

      iter #   5 total cpu time :    40.0 secs   av.it.:   9.5
      thresh= 4.079E-07 alpha_mix =  0.700 |ddv_scf|^2 =  2.214E-13

     End of self-consistent calculation

     Convergence has been achieved 


     Representation #  2 mode #   2

     Self-consistent Calculation

      iter #   1 total cpu time :    40.4 secs   av.it.:   6.0
      thresh= 1.000E-02 alpha_mix =  0.700 |ddv_scf|^2 =  4.328E-05

      iter #   2 total cpu time :    40.9 secs   av.it.:  10.0
      thresh= 6.579E-04 alpha_mix =  0.700 |ddv_scf|^2 =  1.347E-04

      iter #   3 total cpu time :    41.3 secs   av.it.:   8.9
      thresh= 1.161E-03 alpha_mix =  0.700 |ddv_scf|^2 =  9.852E-09

      iter #   4 total cpu time :    41.7 secs   av.it.:  10.1
      thresh= 9.926E-06 alpha_mix =  0.700 |ddv_scf|^2 =  4.999E-10

      iter #   5 total cpu time :    42.2 secs   av.it.:  10.4
      thresh= 2.236E-06 alpha_mix =  0.700 |ddv_scf|^2 =  1.500E-11

      iter #   6 total cpu time :    42.6 secs   av.it.:   9.9
      thresh= 3.873E-07 alpha_mix =  0.700 |ddv_scf|^2 =  1.112E-13

     End of self-consistent calculation

     Convergence has been achieved 


     Representation #  3 modes #   3  4

     Self-consistent Calculation

      iter #   1 total cpu time :    43.4 secs   av.it.:   5.0
      thresh= 1.000E-02 alpha_mix =  0.700 |ddv_scf|^2 =  1.958E-08

      iter #   2 total cpu time :    44.3 secs   av.it.:  11.1
      thresh= 1.399E-05 alpha_mix =  0.700 |ddv_scf|^2 =  1.153E-09

      iter #   3 total cpu time :    45.2 secs   av.it.:  10.8
      thresh= 3.396E-06 alpha_mix =  0.700 |ddv_scf|^2 =  3.868E-11

      iter #   4 total cpu time :    45.9 secs   av.it.:  10.8
      thresh= 6.220E-07 alpha_mix =  0.700 |ddv_scf|^2 =  3.159E-13

     End of self-consistent calculation

     Convergence has been achieved 


     Representation #  4 modes #   5  6

     Self-consistent Calculation

      iter #   1 total cpu time :    46.7 secs   av.it.:   5.1
      thresh= 1.000E-02 alpha_mix =  0.700 |ddv_scf|^2 =  1.004E-07

      iter #   2 total cpu time :    47.5 secs   av.it.:  11.2
      thresh= 3.169E-05 alpha_mix =  0.700 |ddv_scf|^2 =  8.058E-09

      iter #   3 total cpu time :    48.6 secs   av.it.:  11.1
      thresh= 8.977E-06 alpha_mix =  0.700 |ddv_scf|^2 =  2.118E-10

      iter #   4 total cpu time :    49.3 secs   av.it.:  10.1
      thresh= 1.455E-06 alpha_mix =  0.700 |ddv_scf|^2 =  3.851E-13

     End of self-consistent calculation

     Convergence has been achieved 

     Number of q in the star =    4
     List of q in the star:
          1   0.500000000  -0.500000000   0.500000000
          2   0.500000000   0.500000000   0.500000000
          3  -0.500000000   0.500000000   0.500000000
          4   0.500000000   0.500000000  -0.500000000

     Diagonalizing the dynamical matrix

     q = (    0.500000000  -0.500000000   0.500000000 ) 

 **************************************************************************
     freq (    1) =       3.308976 [THz] =     110.375560 [cm-1]
     freq (    2) =       3.308976 [THz] =     110.375560 [cm-1]
     freq (    3) =      11.091760 [THz] =     369.981283 [cm-1]
     freq (    4) =      11.940785 [THz] =     398.301729 [cm-1]
     freq (    5) =      14.258353 [THz] =     475.607450 [cm-1]
     freq (    6) =      14.258353 [THz] =     475.607450 [cm-1]
 **************************************************************************

     Calculation of q =    0.0000000   0.5000000   0.0000000

   Info: using nr1, nr2, nr3 values from input

   Info: using nr1, nr2, nr3 values from input

     Parallelization info
     --------------------
     sticks:   dense  smooth     PW     G-vecs:    dense   smooth      PW
     Min         218     109     37                 4315     1545     309
     Max         220     110     38                 4316     1546     312
     Sum         877     439    151                17261     6183    1243



     bravais-lattice index     =            2
     lattice parameter (alat)  =      10.3380  a.u.
     unit-cell volume          =     276.2165 (a.u.)^3
     number of atoms/cell      =            2
     number of atomic types    =            1
     number of electrons       =         8.00
     number of Kohn-Sham states=            4
     kinetic-energy cutoff     =      30.0000  Ry
     charge density cutoff     =     240.0000  Ry
     Exchange-correlation      = SLA  PW   PBE  PBE ( 1  4  3  4 0 0)

     celldm(1)=  10.338000  celldm(2)=   0.000000  celldm(3)=   0.000000
     celldm(4)=   0.000000  celldm(5)=   0.000000  celldm(6)=   0.000000

     crystal axes: (cart. coord. in units of alat)
               a(1) = (  -0.500000   0.000000   0.500000 )  
               a(2) = (   0.000000   0.500000   0.500000 )  
               a(3) = (  -0.500000   0.500000   0.000000 )  

     reciprocal axes: (cart. coord. in units 2 pi/alat)
               b(1) = ( -1.000000 -1.000000  1.000000 )  
               b(2) = (  1.000000  1.000000  1.000000 )  
               b(3) = ( -1.000000  1.000000 -1.000000 )  


     PseudoPot. # 1 for Si read from file:
     /home/s1333534/quantum_espresso/qe-6.1/pseudo/si_pbe_v1.uspp.F.UPF.txt
     MD5 check sum: a056efeee980c13900f22a371efd63c1
     Pseudo is Ultrasoft + core correction, Zval =  4.0
     Generated by new atomic code, or converted to UPF format
     Using radial grid of  899 points,  6 beta functions with: 
                l(1) =   0
                l(2) =   0
                l(3) =   1
                l(4) =   1
                l(5) =   2
                l(6) =   2
     Q(r) pseudized with  8 coefficients,  rinner =    0.900   0.900   0.900
                                                       0.900   0.900

     atomic species   valence    mass     pseudopotential
        Si             4.00    28.08600     Si( 1.00)

     48 Sym. Ops., with inversion, found



   Cartesian axes

     site n.     atom                  positions (alat units)
         1           Si  tau(   1) = (   0.0000000   0.0000000   0.0000000  )
         2           Si  tau(   2) = (   0.2500000   0.2500000   0.2500000  )

     number of k points=    80
                       cart. coord. in units 2pi/alat
        k(    1) = (  -0.1250000   0.1250000   0.1250000), wk =   0.0312500
        k(    2) = (  -0.1250000   0.6250000   0.1250000), wk =   0.0000000
        k(    3) = (  -0.3750000   0.3750000  -0.1250000), wk =   0.0625000
        k(    4) = (  -0.3750000   0.8750000  -0.1250000), wk =   0.0000000
        k(    5) = (   0.3750000  -0.3750000   0.6250000), wk =   0.0625000
        k(    6) = (   0.3750000   0.1250000   0.6250000), wk =   0.0000000
        k(    7) = (   0.1250000  -0.1250000   0.3750000), wk =   0.0625000
        k(    8) = (   0.1250000   0.3750000   0.3750000), wk =   0.0000000
        k(    9) = (  -0.1250000   0.6250000   0.1250000), wk =   0.0312500
        k(   10) = (  -0.1250000   1.1250000   0.1250000), wk =   0.0000000
        k(   11) = (   0.6250000  -0.1250000   0.8750000), wk =   0.0625000
        k(   12) = (   0.6250000   0.3750000   0.8750000), wk =   0.0000000
        k(   13) = (   0.3750000   0.1250000   0.6250000), wk =   0.0625000
        k(   14) = (   0.3750000   0.6250000   0.6250000), wk =   0.0000000
        k(   15) = (  -0.1250000  -0.8750000   0.1250000), wk =   0.0312500
        k(   16) = (  -0.1250000  -0.3750000   0.1250000), wk =   0.0000000
        k(   17) = (  -0.3750000   0.3750000   0.3750000), wk =   0.0312500
        k(   18) = (  -0.3750000   0.8750000   0.3750000), wk =   0.0000000
        k(   19) = (   0.3750000  -0.3750000   1.1250000), wk =   0.0625000
        k(   20) = (   0.3750000   0.1250000   1.1250000), wk =   0.0000000
        k(   21) = (  -0.1250000  -0.1250000   0.1250000), wk =   0.0312500
        k(   22) = (  -0.1250000   0.3750000   0.1250000), wk =   0.0000000
        k(   23) = (   0.1250000  -0.3750000   0.3750000), wk =   0.0625000
        k(   24) = (   0.1250000   0.1250000   0.3750000), wk =   0.0000000
        k(   25) = (   0.3750000  -0.1250000   0.3750000), wk =   0.0312500
        k(   26) = (   0.3750000   0.3750000   0.3750000), wk =   0.0000000
        k(   27) = (   0.3750000   0.1250000   0.3750000), wk =   0.0312500
        k(   28) = (   0.3750000   0.6250000   0.3750000), wk =   0.0000000
        k(   29) = (  -0.6250000   0.3750000  -0.3750000), wk =   0.0625000
        k(   30) = (  -0.6250000   0.8750000  -0.3750000), wk =   0.0000000
        k(   31) = (  -0.3750000   0.6250000  -0.3750000), wk =   0.0312500
        k(   32) = (  -0.3750000   1.1250000  -0.3750000), wk =   0.0000000
        k(   33) = (  -0.3750000  -0.6250000  -0.3750000), wk =   0.0312500
        k(   34) = (  -0.3750000  -0.1250000  -0.3750000), wk =   0.0000000
        k(   35) = (  -0.3750000   0.1250000  -0.1250000), wk =   0.0625000
        k(   36) = (  -0.3750000   0.6250000  -0.1250000), wk =   0.0000000
        k(   37) = (  -0.1250000   0.3750000  -0.1250000), wk =   0.0312500
        k(   38) = (  -0.1250000   0.8750000  -0.1250000), wk =   0.0000000
        k(   39) = (  -0.1250000  -0.3750000  -0.1250000), wk =   0.0312500
        k(   40) = (  -0.1250000   0.1250000  -0.1250000), wk =   0.0000000
        k(   41) = (  -0.1250000  -0.6250000   0.1250000), wk =   0.0312500
        k(   42) = (  -0.1250000  -0.1250000   0.1250000), wk =   0.0000000
        k(   43) = (   0.6250000  -0.1250000  -0.1250000), wk =   0.0625000
        k(   44) = (   0.6250000   0.3750000  -0.1250000), wk =   0.0000000
        k(   45) = (   0.6250000   0.1250000   0.1250000), wk =   0.0625000
        k(   46) = (   0.6250000   0.6250000   0.1250000), wk =   0.0000000
        k(   47) = (  -0.8750000   0.1250000  -0.6250000), wk =   0.0625000
        k(   48) = (  -0.8750000   0.6250000  -0.6250000), wk =   0.0000000
        k(   49) = (  -0.1250000   0.6250000  -0.8750000), wk =   0.0625000
        k(   50) = (  -0.1250000   1.1250000  -0.8750000), wk =   0.0000000
        k(   51) = (  -0.1250000   0.8750000  -0.6250000), wk =   0.0625000
        k(   52) = (  -0.1250000   1.3750000  -0.6250000), wk =   0.0000000
        k(   53) = (  -0.1250000  -0.8750000  -0.6250000), wk =   0.0625000
        k(   54) = (  -0.1250000  -0.3750000  -0.6250000), wk =   0.0000000
        k(   55) = (   0.8750000  -0.6250000   0.1250000), wk =   0.0625000
        k(   56) = (   0.8750000  -0.1250000   0.1250000), wk =   0.0000000
        k(   57) = (  -0.6250000  -0.1250000  -0.3750000), wk =   0.0625000
        k(   58) = (  -0.6250000   0.3750000  -0.3750000), wk =   0.0000000
        k(   59) = (   0.1250000   0.3750000  -0.6250000), wk =   0.0625000
        k(   60) = (   0.1250000   0.8750000  -0.6250000), wk =   0.0000000
        k(   61) = (   0.1250000   0.6250000  -0.3750000), wk =   0.0625000
        k(   62) = (   0.1250000   1.1250000  -0.3750000), wk =   0.0000000
        k(   63) = (   0.1250000  -0.6250000  -0.3750000), wk =   0.0625000
        k(   64) = (   0.1250000  -0.1250000  -0.3750000), wk =   0.0000000
        k(   65) = (   0.6250000  -0.3750000  -0.1250000), wk =   0.0625000
        k(   66) = (   0.6250000   0.1250000  -0.1250000), wk =   0.0000000
        k(   67) = (  -0.1250000   0.8750000   0.1250000), wk =   0.0312500
        k(   68) = (  -0.1250000   1.3750000   0.1250000), wk =   0.0000000
        k(   69) = (  -0.8750000  -0.1250000  -0.1250000), wk =   0.0625000
        k(   70) = (  -0.8750000   0.3750000  -0.1250000), wk =   0.0000000
        k(   71) = (  -0.8750000   0.1250000   0.1250000), wk =   0.0625000
        k(   72) = (  -0.8750000   0.6250000   0.1250000), wk =   0.0000000
        k(   73) = (  -0.3750000  -0.3750000   0.3750000), wk =   0.0312500
        k(   74) = (  -0.3750000   0.1250000   0.3750000), wk =   0.0000000
        k(   75) = (  -1.1250000   0.3750000  -0.3750000), wk =   0.0625000
        k(   76) = (  -1.1250000   0.8750000  -0.3750000), wk =   0.0000000
        k(   77) = (  -0.3750000   1.1250000  -0.3750000), wk =   0.0312500
        k(   78) = (  -0.3750000   1.6250000  -0.3750000), wk =   0.0000000
        k(   79) = (  -0.3750000  -1.1250000  -0.3750000), wk =   0.0312500
        k(   80) = (  -0.3750000  -0.6250000  -0.3750000), wk =   0.0000000

     Dense  grid:    17261 G-vectors     FFT dimensions: (  40,  40,  40)

     Smooth grid:     6183 G-vectors     FFT dimensions: (  25,  25,  25)

     Estimated max dynamical RAM per process >       1.78MB

     Estimated total allocated dynamical RAM >       7.14MB

     The potential is recalculated from file :
     ./_ph0/silicon.10.338.save/charge-density.dat

     Starting wfc are    8 atomic wfcs

     Band Structure Calculation
     Davidson diagonalization with overlap

     ethr =  1.25E-10,  avg # of iterations = 12.2

     total cpu time spent up to now is        3.6 secs

     End of band structure calculation

          k =-0.1250 0.1250 0.1250 (   770 PWs)   bands (ev):

    -5.6426   4.3741   5.6834   5.6834

          k =-0.1250 0.6250 0.1250 (   768 PWs)   bands (ev):

    -4.0860   1.0492   3.3530   3.8049

          k =-0.3750 0.3750-0.1250 (   773 PWs)   bands (ev):

    -4.6178   1.3846   3.7006   5.2038

          k =-0.3750 0.8750-0.1250 (   757 PWs)   bands (ev):

    -2.4495  -0.9098   2.0018   3.0763

          k = 0.3750-0.3750 0.6250 (   767 PWs)   bands (ev):

    -3.4806  -0.6895   3.7206   4.4339

          k = 0.3750 0.1250 0.6250 (   768 PWs)   bands (ev):

    -3.6714   0.1784   2.7120   4.0791

          k = 0.1250-0.1250 0.3750 (   774 PWs)   bands (ev):

    -5.1156   2.7589   4.6774   4.7405

          k = 0.1250 0.3750 0.3750 (   773 PWs)   bands (ev):

    -4.6178   1.3846   3.7006   5.2038

          k =-0.1250 0.6250 0.1250 (   768 PWs)   bands (ev):

    -4.0860   1.0492   3.3530   3.8049

          k =-0.1250 1.1250 0.1250 (   762 PWs)   bands (ev):

    -2.6165  -0.8129   2.6104   3.3387

          k = 0.6250-0.1250 0.8750 (   757 PWs)   bands (ev):

    -2.4495  -0.9098   2.0018   3.0763

          k = 0.6250 0.3750 0.8750 (   768 PWs)   bands (ev):

    -3.6714   0.1784   2.7120   4.0791

          k = 0.3750 0.1250 0.6250 (   768 PWs)   bands (ev):

    -3.6714   0.1784   2.7120   4.0791

          k = 0.3750 0.6250 0.6250 (   767 PWs)   bands (ev):

    -3.4806  -0.6895   3.7206   4.4339

          k =-0.1250-0.8750 0.1250 (   762 PWs)   bands (ev):

    -2.6165  -0.8129   2.6104   3.3387

          k =-0.1250-0.3750 0.1250 (   774 PWs)   bands (ev):

    -5.1156   2.7589   4.6774   4.7405

          k =-0.3750 0.3750 0.3750 (   763 PWs)   bands (ev):

    -4.1857   0.0973   4.8974   4.8974

          k =-0.3750 0.8750 0.3750 (   767 PWs)   bands (ev):

    -2.9857  -0.6065   2.0593   4.1175

          k = 0.3750-0.3750 1.1250 (   767 PWs)   bands (ev):

    -2.9857  -0.6065   2.0593   4.1175

          k = 0.3750 0.1250 1.1250 (   757 PWs)   bands (ev):

    -2.4495  -0.9098   2.0018   3.0763

          k =-0.1250-0.1250 0.1250 (   770 PWs)   bands (ev):

    -5.6426   4.3741   5.6834   5.6834

          k =-0.1250 0.3750 0.1250 (   774 PWs)   bands (ev):

    -5.1156   2.7589   4.6774   4.7405

          k = 0.1250-0.3750 0.3750 (   773 PWs)   bands (ev):

    -4.6178   1.3846   3.7006   5.2038

          k = 0.1250 0.1250 0.3750 (   774 PWs)   bands (ev):

    -5.1156   2.7589   4.6774   4.7405

          k = 0.3750-0.1250 0.3750 (   773 PWs)   bands (ev):

    -4.6178   1.3846   3.7006   5.2038

          k = 0.3750 0.3750 0.3750 (   763 PWs)   bands (ev):

    -4.1857   0.0973   4.8974   4.8974

          k = 0.3750 0.1250 0.3750 (   773 PWs)   bands (ev):

    -4.6178   1.3846   3.7006   5.2038

          k = 0.3750 0.6250 0.3750 (   767 PWs)   bands (ev):

    -3.4806  -0.6895   3.7206   4.4339

          k =-0.6250 0.3750-0.3750 (   767 PWs)   bands (ev):

    -3.4806  -0.6895   3.7206   4.4339

          k =-0.6250 0.8750-0.3750 (   768 PWs)   bands (ev):

    -3.6714   0.1784   2.7120   4.0791

          k =-0.3750 0.6250-0.3750 (   767 PWs)   bands (ev):

    -3.4806  -0.6895   3.7206   4.4339

          k =-0.3750 1.1250-0.3750 (   767 PWs)   bands (ev):

    -2.9857  -0.6065   2.0593   4.1175

          k =-0.3750-0.6250-0.3750 (   767 PWs)   bands (ev):

    -3.4806  -0.6895   3.7206   4.4339

          k =-0.3750-0.1250-0.3750 (   773 PWs)   bands (ev):

    -4.6178   1.3846   3.7006   5.2038

          k =-0.3750 0.1250-0.1250 (   774 PWs)   bands (ev):

    -5.1156   2.7589   4.6774   4.7405

          k =-0.3750 0.6250-0.1250 (   768 PWs)   bands (ev):

    -3.6714   0.1784   2.7120   4.0791

          k =-0.1250 0.3750-0.1250 (   774 PWs)   bands (ev):

    -5.1156   2.7589   4.6774   4.7405

          k =-0.1250 0.8750-0.1250 (   762 PWs)   bands (ev):

    -2.6165  -0.8129   2.6104   3.3387

          k =-0.1250-0.3750-0.1250 (   774 PWs)   bands (ev):

    -5.1156   2.7589   4.6774   4.7405

          k =-0.1250 0.1250-0.1250 (   770 PWs)   bands (ev):

    -5.6426   4.3741   5.6834   5.6834

          k =-0.1250-0.6250 0.1250 (   768 PWs)   bands (ev):

    -4.0860   1.0492   3.3530   3.8049

          k =-0.1250-0.1250 0.1250 (   770 PWs)   bands (ev):

    -5.6426   4.3741   5.6834   5.6834

          k = 0.6250-0.1250-0.1250 (   768 PWs)   bands (ev):

    -4.0860   1.0492   3.3530   3.8049

          k = 0.6250 0.3750-0.1250 (   768 PWs)   bands (ev):

    -3.6714   0.1784   2.7120   4.0791

          k = 0.6250 0.1250 0.1250 (   768 PWs)   bands (ev):

    -4.0860   1.0492   3.3530   3.8049

          k = 0.6250 0.6250 0.1250 (   767 PWs)   bands (ev):

    -2.9857  -0.6065   2.0593   4.1175

          k =-0.8750 0.1250-0.6250 (   757 PWs)   bands (ev):

    -2.4495  -0.9098   2.0018   3.0763

          k =-0.8750 0.6250-0.6250 (   773 PWs)   bands (ev):

    -4.6178   1.3846   3.7006   5.2038

          k =-0.1250 0.6250-0.8750 (   757 PWs)   bands (ev):

    -2.4495  -0.9098   2.0018   3.0763

          k =-0.1250 1.1250-0.8750 (   762 PWs)   bands (ev):

    -2.6165  -0.8129   2.6104   3.3387

          k =-0.1250 0.8750-0.6250 (   757 PWs)   bands (ev):

    -2.4495  -0.9098   2.0018   3.0763

          k =-0.1250 1.3750-0.6250 (   767 PWs)   bands (ev):

    -2.9857  -0.6065   2.0593   4.1175

          k =-0.1250-0.8750-0.6250 (   757 PWs)   bands (ev):

    -2.4495  -0.9098   2.0018   3.0763

          k =-0.1250-0.3750-0.6250 (   768 PWs)   bands (ev):

    -3.6714   0.1784   2.7120   4.0791

          k = 0.8750-0.6250 0.1250 (   757 PWs)   bands (ev):

    -2.4495  -0.9098   2.0018   3.0763

          k = 0.8750-0.1250 0.1250 (   762 PWs)   bands (ev):

    -2.6165  -0.8129   2.6104   3.3387

          k =-0.6250-0.1250-0.3750 (   768 PWs)   bands (ev):

    -3.6714   0.1784   2.7120   4.0791

          k =-0.6250 0.3750-0.3750 (   767 PWs)   bands (ev):

    -3.4806  -0.6895   3.7206   4.4339

          k = 0.1250 0.3750-0.6250 (   768 PWs)   bands (ev):

    -3.6714   0.1784   2.7120   4.0791

          k = 0.1250 0.8750-0.6250 (   757 PWs)   bands (ev):

    -2.4495  -0.9098   2.0018   3.0763

          k = 0.1250 0.6250-0.3750 (   768 PWs)   bands (ev):

    -3.6714   0.1784   2.7120   4.0791

          k = 0.1250 1.1250-0.3750 (   757 PWs)   bands (ev):

    -2.4495  -0.9098   2.0018   3.0763

          k = 0.1250-0.6250-0.3750 (   768 PWs)   bands (ev):

    -3.6714   0.1784   2.7120   4.0791

          k = 0.1250-0.1250-0.3750 (   774 PWs)   bands (ev):

    -5.1156   2.7589   4.6774   4.7405

          k = 0.6250-0.3750-0.1250 (   768 PWs)   bands (ev):

    -3.6714   0.1784   2.7120   4.0791

          k = 0.6250 0.1250-0.1250 (   768 PWs)   bands (ev):

    -4.0860   1.0492   3.3530   3.8049

          k =-0.1250 0.8750 0.1250 (   762 PWs)   bands (ev):

    -2.6165  -0.8129   2.6104   3.3387

          k =-0.1250 1.3750 0.1250 (   768 PWs)   bands (ev):

    -4.0860   1.0492   3.3530   3.8049

          k =-0.8750-0.1250-0.1250 (   762 PWs)   bands (ev):

    -2.6165  -0.8129   2.6104   3.3387

          k =-0.8750 0.3750-0.1250 (   757 PWs)   bands (ev):

    -2.4495  -0.9098   2.0018   3.0763

          k =-0.8750 0.1250 0.1250 (   762 PWs)   bands (ev):

    -2.6165  -0.8129   2.6104   3.3387

          k =-0.8750 0.6250 0.1250 (   757 PWs)   bands (ev):

    -2.4495  -0.9098   2.0018   3.0763

          k =-0.3750-0.3750 0.3750 (   763 PWs)   bands (ev):

    -4.1857   0.0973   4.8974   4.8974

          k =-0.3750 0.1250 0.3750 (   773 PWs)   bands (ev):

    -4.6178   1.3846   3.7006   5.2038

          k =-1.1250 0.3750-0.3750 (   767 PWs)   bands (ev):

    -2.9857  -0.6065   2.0593   4.1175

          k =-1.1250 0.8750-0.3750 (   768 PWs)   bands (ev):

    -4.0860   1.0492   3.3530   3.8049

          k =-0.3750 1.1250-0.3750 (   767 PWs)   bands (ev):

    -2.9857  -0.6065   2.0593   4.1175

          k =-0.3750 1.6250-0.3750 (   763 PWs)   bands (ev):

    -4.1857   0.0973   4.8974   4.8974

          k =-0.3750-1.1250-0.3750 (   767 PWs)   bands (ev):

    -2.9857  -0.6065   2.0593   4.1175

          k =-0.3750-0.6250-0.3750 (   767 PWs)   bands (ev):

    -3.4806  -0.6895   3.7206   4.4339

     highest occupied level (ev):     5.6834

     Writing output data file silicon.10.338.save

                                                                                

     bravais-lattice index     =            2
     lattice parameter (alat)  =      10.3380  a.u.
     unit-cell volume          =     276.2165 (a.u.)^3
     number of atoms/cell      =            2
     number of atomic types    =            1
     kinetic-energy cut-off    =      30.0000  Ry
     charge density cut-off    =     240.0000  Ry
     convergence threshold     =      1.0E-12
     beta                      =       0.7000
     number of iterations used =            4
     Exchange-correlation      = SLA  PW   PBE  PBE ( 1  4  3  4 0 0)


     celldm(1)=   10.33800  celldm(2)=    0.00000  celldm(3)=    0.00000
     celldm(4)=    0.00000  celldm(5)=    0.00000  celldm(6)=    0.00000

     crystal axes: (cart. coord. in units of alat)
               a(1) = ( -0.5000  0.0000  0.5000 )  
               a(2) = (  0.0000  0.5000  0.5000 )  
               a(3) = ( -0.5000  0.5000  0.0000 )  

     reciprocal axes: (cart. coord. in units 2 pi/alat)
               b(1) = ( -1.0000 -1.0000  1.0000 )  
               b(2) = (  1.0000  1.0000  1.0000 )  
               b(3) = ( -1.0000  1.0000 -1.0000 )  


     Atoms inside the unit cell: 

     Cartesian axes

     site n.  atom      mass           positions (alat units)
        1     Si  28.0860   tau(    1) = (    0.00000    0.00000    0.00000  )
        2     Si  28.0860   tau(    2) = (    0.25000    0.25000    0.25000  )

     Computing dynamical matrix for 
                    q = (   0.0000000   0.5000000   0.0000000 )

      8 Sym.Ops. (no q -> -q+G )


     G cutoff =  649.7175  (   4315 G-vectors)     FFT grid: ( 40, 40, 40)
     G cutoff =  324.8587  (   1546 G-vectors)  smooth grid: ( 25, 25, 25)
     number of k points=    80

     PseudoPot. # 1 for Si read from file:
     /home/s1333534/quantum_espresso/qe-6.1/pseudo/si_pbe_v1.uspp.F.UPF.txt
     MD5 check sum: a056efeee980c13900f22a371efd63c1
     Pseudo is Ultrasoft + core correction, Zval =  4.0
     Generated by new atomic code, or converted to UPF format
     Using radial grid of  899 points,  6 beta functions with: 
                l(1) =   0
                l(2) =   0
                l(3) =   1
                l(4) =   1
                l(5) =   2
                l(6) =   2
     Q(r) pseudized with  8 coefficients,  rinner =    0.900   0.900   0.900
                                                       0.900   0.900

     Mode symmetry, C_4v (4mm)  point group:


     Atomic displacements:
     There are   4 irreducible representations

     Representation     1      1 modes -A_1  G_1 D_1  To be done

     Representation     2      1 modes -B_2  G_4 D_2'  To be done

     Representation     3      2 modes -E    G_5 D_5  To be done

     Representation     4      2 modes -E    G_5 D_5  To be done



     Alpha used in Ewald sum =   2.5000
     PHONON       :    39.88s CPU        52.00s WALL



     Representation #  1 mode #   1

     Self-consistent Calculation

      iter #   1 total cpu time :    52.4 secs   av.it.:   6.2
      thresh= 1.000E-02 alpha_mix =  0.700 |ddv_scf|^2 =  3.733E-04

      iter #   2 total cpu time :    52.9 secs   av.it.:   9.5
      thresh= 1.932E-03 alpha_mix =  0.700 |ddv_scf|^2 =  4.959E-03

      iter #   3 total cpu time :    53.4 secs   av.it.:   7.5
      thresh= 7.042E-03 alpha_mix =  0.700 |ddv_scf|^2 =  7.433E-09

      iter #   4 total cpu time :    53.9 secs   av.it.:  10.3
      thresh= 8.621E-06 alpha_mix =  0.700 |ddv_scf|^2 =  7.200E-10

      iter #   5 total cpu time :    54.4 secs   av.it.:   9.9
      thresh= 2.683E-06 alpha_mix =  0.700 |ddv_scf|^2 =  8.115E-11

      iter #   6 total cpu time :    54.8 secs   av.it.:   9.5
      thresh= 9.008E-07 alpha_mix =  0.700 |ddv_scf|^2 =  2.509E-13

     End of self-consistent calculation

     Convergence has been achieved 


     Representation #  2 mode #   2

     Self-consistent Calculation

      iter #   1 total cpu time :    55.3 secs   av.it.:   5.1
      thresh= 1.000E-02 alpha_mix =  0.700 |ddv_scf|^2 =  5.906E-07

      iter #   2 total cpu time :    55.8 secs   av.it.:  10.6
      thresh= 7.685E-05 alpha_mix =  0.700 |ddv_scf|^2 =  1.623E-07

      iter #   3 total cpu time :    56.4 secs   av.it.:  10.2
      thresh= 4.029E-05 alpha_mix =  0.700 |ddv_scf|^2 =  1.658E-09

      iter #   4 total cpu time :    56.9 secs   av.it.:  10.3
      thresh= 4.072E-06 alpha_mix =  0.700 |ddv_scf|^2 =  6.543E-11

      iter #   5 total cpu time :    57.3 secs   av.it.:  10.5
      thresh= 8.089E-07 alpha_mix =  0.700 |ddv_scf|^2 =  3.852E-13

     End of self-consistent calculation

     Convergence has been achieved 


     Representation #  3 modes #   3  4

     Self-consistent Calculation

      iter #   1 total cpu time :    58.1 secs   av.it.:   5.2
      thresh= 1.000E-02 alpha_mix =  0.700 |ddv_scf|^2 =  1.046E-07

      iter #   2 total cpu time :    59.1 secs   av.it.:  11.7
      thresh= 3.235E-05 alpha_mix =  0.700 |ddv_scf|^2 =  1.443E-08

      iter #   3 total cpu time :    60.1 secs   av.it.:  11.3
      thresh= 1.201E-05 alpha_mix =  0.700 |ddv_scf|^2 =  2.430E-10

      iter #   4 total cpu time :    60.9 secs   av.it.:  10.8
      thresh= 1.559E-06 alpha_mix =  0.700 |ddv_scf|^2 =  5.743E-13

     End of self-consistent calculation

     Convergence has been achieved 


     Representation #  4 modes #   5  6

     Self-consistent Calculation

      iter #   1 total cpu time :    61.8 secs   av.it.:   5.3
      thresh= 1.000E-02 alpha_mix =  0.700 |ddv_scf|^2 =  9.592E-08

      iter #   2 total cpu time :    62.8 secs   av.it.:  11.6
      thresh= 3.097E-05 alpha_mix =  0.700 |ddv_scf|^2 =  1.288E-08

      iter #   3 total cpu time :    63.8 secs   av.it.:  11.4
      thresh= 1.135E-05 alpha_mix =  0.700 |ddv_scf|^2 =  2.485E-10

      iter #   4 total cpu time :    64.6 secs   av.it.:  11.1
      thresh= 1.576E-06 alpha_mix =  0.700 |ddv_scf|^2 =  6.114E-13

     End of self-consistent calculation

     Convergence has been achieved 

     Number of q in the star =    6
     List of q in the star:
          1   0.000000000   0.500000000   0.000000000
          2   0.000000000  -0.500000000   0.000000000
          3   0.500000000   0.000000000   0.000000000
          4   0.000000000   0.000000000   0.500000000
          5   0.000000000   0.000000000  -0.500000000
          6  -0.500000000   0.000000000   0.000000000

     Diagonalizing the dynamical matrix

     q = (    0.000000000   0.500000000   0.000000000 ) 

 **************************************************************************
     freq (    1) =       3.772236 [THz] =     125.828234 [cm-1]
     freq (    2) =       3.772236 [THz] =     125.828234 [cm-1]
     freq (    3) =       7.049442 [THz] =     235.144066 [cm-1]
     freq (    4) =      13.797789 [THz] =     460.244685 [cm-1]
     freq (    5) =      13.797789 [THz] =     460.244685 [cm-1]
     freq (    6) =      14.437255 [THz] =     481.574982 [cm-1]
 **************************************************************************

     Mode symmetry, C_4v (4mm)  point group:

     freq (  1 -  2) =        125.8  [cm-1]   --> E    G_5 D_5       
     freq (  3 -  3) =        235.1  [cm-1]   --> A_1  G_1 D_1       
     freq (  4 -  5) =        460.2  [cm-1]   --> E    G_5 D_5       
     freq (  6 -  6) =        481.6  [cm-1]   --> B_2  G_4 D_2'      

     Calculation of q =    0.7500000  -0.2500000   0.7500000

   Info: using nr1, nr2, nr3 values from input

   Info: using nr1, nr2, nr3 values from input

     Parallelization info
     --------------------
     sticks:   dense  smooth     PW     G-vecs:    dense   smooth      PW
     Min         219     109     40                 4315     1545     362
     Max         220     110     41                 4316     1546     366
     Sum         877     439    163                17261     6183    1459



     bravais-lattice index     =            2
     lattice parameter (alat)  =      10.3380  a.u.
     unit-cell volume          =     276.2165 (a.u.)^3
     number of atoms/cell      =            2
     number of atomic types    =            1
     number of electrons       =         8.00
     number of Kohn-Sham states=            4
     kinetic-energy cutoff     =      30.0000  Ry
     charge density cutoff     =     240.0000  Ry
     Exchange-correlation      = SLA  PW   PBE  PBE ( 1  4  3  4 0 0)

     celldm(1)=  10.338000  celldm(2)=   0.000000  celldm(3)=   0.000000
     celldm(4)=   0.000000  celldm(5)=   0.000000  celldm(6)=   0.000000

     crystal axes: (cart. coord. in units of alat)
               a(1) = (  -0.500000   0.000000   0.500000 )  
               a(2) = (   0.000000   0.500000   0.500000 )  
               a(3) = (  -0.500000   0.500000   0.000000 )  

     reciprocal axes: (cart. coord. in units 2 pi/alat)
               b(1) = ( -1.000000 -1.000000  1.000000 )  
               b(2) = (  1.000000  1.000000  1.000000 )  
               b(3) = ( -1.000000  1.000000 -1.000000 )  


     PseudoPot. # 1 for Si read from file:
     /home/s1333534/quantum_espresso/qe-6.1/pseudo/si_pbe_v1.uspp.F.UPF.txt
     MD5 check sum: a056efeee980c13900f22a371efd63c1
     Pseudo is Ultrasoft + core correction, Zval =  4.0
     Generated by new atomic code, or converted to UPF format
     Using radial grid of  899 points,  6 beta functions with: 
                l(1) =   0
                l(2) =   0
                l(3) =   1
                l(4) =   1
                l(5) =   2
                l(6) =   2
     Q(r) pseudized with  8 coefficients,  rinner =    0.900   0.900   0.900
                                                       0.900   0.900

     atomic species   valence    mass     pseudopotential
        Si             4.00    28.08600     Si( 1.00)

     48 Sym. Ops., with inversion, found



   Cartesian axes

     site n.     atom                  positions (alat units)
         1           Si  tau(   1) = (   0.0000000   0.0000000   0.0000000  )
         2           Si  tau(   2) = (   0.2500000   0.2500000   0.2500000  )

     number of k points=   288

     Number of k-points >= 100: set verbosity='high' to print them.

     Dense  grid:    17261 G-vectors     FFT dimensions: (  40,  40,  40)

     Smooth grid:     6183 G-vectors     FFT dimensions: (  25,  25,  25)

     Estimated max dynamical RAM per process >       1.78MB

     Estimated total allocated dynamical RAM >       7.14MB

     The potential is recalculated from file :
     ./_ph0/silicon.10.338.save/charge-density.dat

     Starting wfc are    8 atomic wfcs

     Band Structure Calculation
     Davidson diagonalization with overlap

     ethr =  1.25E-10,  avg # of iterations = 12.1

     total cpu time spent up to now is        6.8 secs

     End of band structure calculation

     Number of k-points >= 100: set verbosity='high' to print the bands.

     highest occupied level (ev):     5.6834

     Writing output data file silicon.10.338.save

                                                                                

     bravais-lattice index     =            2
     lattice parameter (alat)  =      10.3380  a.u.
     unit-cell volume          =     276.2165 (a.u.)^3
     number of atoms/cell      =            2
     number of atomic types    =            1
     kinetic-energy cut-off    =      30.0000  Ry
     charge density cut-off    =     240.0000  Ry
     convergence threshold     =      1.0E-12
     beta                      =       0.7000
     number of iterations used =            4
     Exchange-correlation      = SLA  PW   PBE  PBE ( 1  4  3  4 0 0)


     celldm(1)=   10.33800  celldm(2)=    0.00000  celldm(3)=    0.00000
     celldm(4)=    0.00000  celldm(5)=    0.00000  celldm(6)=    0.00000

     crystal axes: (cart. coord. in units of alat)
               a(1) = ( -0.5000  0.0000  0.5000 )  
               a(2) = (  0.0000  0.5000  0.5000 )  
               a(3) = ( -0.5000  0.5000  0.0000 )  

     reciprocal axes: (cart. coord. in units 2 pi/alat)
               b(1) = ( -1.0000 -1.0000  1.0000 )  
               b(2) = (  1.0000  1.0000  1.0000 )  
               b(3) = ( -1.0000  1.0000 -1.0000 )  


     Atoms inside the unit cell: 

     Cartesian axes

     site n.  atom      mass           positions (alat units)
        1     Si  28.0860   tau(    1) = (    0.00000    0.00000    0.00000  )
        2     Si  28.0860   tau(    2) = (    0.25000    0.25000    0.25000  )

     Computing dynamical matrix for 
                    q = (   0.7500000  -0.2500000   0.7500000 )

      2 Sym.Ops. (no q -> -q+G )


     G cutoff =  649.7175  (   4315 G-vectors)     FFT grid: ( 40, 40, 40)
     G cutoff =  324.8587  (   1546 G-vectors)  smooth grid: ( 25, 25, 25)
     number of k points=   288

     PseudoPot. # 1 for Si read from file:
     /home/s1333534/quantum_espresso/qe-6.1/pseudo/si_pbe_v1.uspp.F.UPF.txt
     MD5 check sum: a056efeee980c13900f22a371efd63c1
     Pseudo is Ultrasoft + core correction, Zval =  4.0
     Generated by new atomic code, or converted to UPF format
     Using radial grid of  899 points,  6 beta functions with: 
                l(1) =   0
                l(2) =   0
                l(3) =   1
                l(4) =   1
                l(5) =   2
                l(6) =   2
     Q(r) pseudized with  8 coefficients,  rinner =    0.900   0.900   0.900
                                                       0.900   0.900

     Mode symmetry, C_s (m)     point group:


     Atomic displacements:
     There are   6 irreducible representations

     Representation     1      1 modes -A'  To be done

     Representation     2      1 modes -A'  To be done

     Representation     3      1 modes -A'  To be done

     Representation     4      1 modes -A'  To be done

     Representation     5      1 modes -A''  To be done

     Representation     6      1 modes -A''  To be done



     Alpha used in Ewald sum =   2.5000
     PHONON       :  0m54.21s CPU     1m 9.88s WALL



     Representation #  1 mode #   1

     Self-consistent Calculation

      iter #   1 total cpu time :    70.8 secs   av.it.:   5.6
      thresh= 1.000E-02 alpha_mix =  0.700 |ddv_scf|^2 =  7.616E-06

      iter #   2 total cpu time :    72.1 secs   av.it.:  10.7
      thresh= 2.760E-04 alpha_mix =  0.700 |ddv_scf|^2 =  2.037E-05

      iter #   3 total cpu time :    73.4 secs   av.it.:   9.4
      thresh= 4.513E-04 alpha_mix =  0.700 |ddv_scf|^2 =  1.365E-07

      iter #   4 total cpu time :    74.7 secs   av.it.:  10.1
      thresh= 3.695E-05 alpha_mix =  0.700 |ddv_scf|^2 =  2.721E-09

      iter #   5 total cpu time :    76.1 secs   av.it.:  10.6
      thresh= 5.217E-06 alpha_mix =  0.700 |ddv_scf|^2 =  4.658E-10

      iter #   6 total cpu time :    77.5 secs   av.it.:  10.6
      thresh= 2.158E-06 alpha_mix =  0.700 |ddv_scf|^2 =  7.186E-12

      iter #   7 total cpu time :    78.9 secs   av.it.:  10.7
      thresh= 2.681E-07 alpha_mix =  0.700 |ddv_scf|^2 =  2.734E-13

     End of self-consistent calculation

     Convergence has been achieved 


     Representation #  2 mode #   2

     Self-consistent Calculation

      iter #   1 total cpu time :    80.0 secs   av.it.:   5.8
      thresh= 1.000E-02 alpha_mix =  0.700 |ddv_scf|^2 =  1.363E-05

      iter #   2 total cpu time :    81.5 secs   av.it.:  10.6
      thresh= 3.692E-04 alpha_mix =  0.700 |ddv_scf|^2 =  3.955E-05

      iter #   3 total cpu time :    82.9 secs   av.it.:   9.2
      thresh= 6.289E-04 alpha_mix =  0.700 |ddv_scf|^2 =  9.243E-08

      iter #   4 total cpu time :    84.3 secs   av.it.:  10.4
      thresh= 3.040E-05 alpha_mix =  0.700 |ddv_scf|^2 =  3.077E-09

      iter #   5 total cpu time :    85.7 secs   av.it.:  10.6
      thresh= 5.547E-06 alpha_mix =  0.700 |ddv_scf|^2 =  6.265E-10

      iter #   6 total cpu time :    87.1 secs   av.it.:  10.5
      thresh= 2.503E-06 alpha_mix =  0.700 |ddv_scf|^2 =  6.520E-12

      iter #   7 total cpu time :    88.5 secs   av.it.:  10.7
      thresh= 2.553E-07 alpha_mix =  0.700 |ddv_scf|^2 =  2.317E-13

     End of self-consistent calculation

     Convergence has been achieved 


     Representation #  3 mode #   3

     Self-consistent Calculation

      iter #   1 total cpu time :    89.6 secs   av.it.:   5.7
      thresh= 1.000E-02 alpha_mix =  0.700 |ddv_scf|^2 =  1.068E-05

      iter #   2 total cpu time :    90.9 secs   av.it.:  10.7
      thresh= 3.268E-04 alpha_mix =  0.700 |ddv_scf|^2 =  2.910E-05

      iter #   3 total cpu time :    92.2 secs   av.it.:   9.2
      thresh= 5.394E-04 alpha_mix =  0.700 |ddv_scf|^2 =  1.612E-07

      iter #   4 total cpu time :    93.5 secs   av.it.:  10.0
      thresh= 4.015E-05 alpha_mix =  0.700 |ddv_scf|^2 =  3.136E-09

      iter #   5 total cpu time :    94.9 secs   av.it.:  10.7
      thresh= 5.600E-06 alpha_mix =  0.700 |ddv_scf|^2 =  6.130E-10

      iter #   6 total cpu time :    96.3 secs   av.it.:  10.5
      thresh= 2.476E-06 alpha_mix =  0.700 |ddv_scf|^2 =  4.548E-12

      iter #   7 total cpu time :    97.6 secs   av.it.:  10.7
      thresh= 2.133E-07 alpha_mix =  0.700 |ddv_scf|^2 =  1.336E-13

     End of self-consistent calculation

     Convergence has been achieved 


     Representation #  4 mode #   4

     Self-consistent Calculation

      iter #   1 total cpu time :    98.6 secs   av.it.:   5.5
      thresh= 1.000E-02 alpha_mix =  0.700 |ddv_scf|^2 =  4.661E-06

      iter #   2 total cpu time :   100.0 secs   av.it.:  10.9
      thresh= 2.159E-04 alpha_mix =  0.700 |ddv_scf|^2 =  9.895E-06

      iter #   3 total cpu time :   101.2 secs   av.it.:   9.7
      thresh= 3.146E-04 alpha_mix =  0.700 |ddv_scf|^2 =  2.141E-07

      iter #   4 total cpu time :   102.6 secs   av.it.:  10.0
      thresh= 4.627E-05 alpha_mix =  0.700 |ddv_scf|^2 =  2.686E-09

      iter #   5 total cpu time :   104.1 secs   av.it.:  10.7
      thresh= 5.183E-06 alpha_mix =  0.700 |ddv_scf|^2 =  5.026E-10

      iter #   6 total cpu time :   106.1 secs   av.it.:  10.5
      thresh= 2.242E-06 alpha_mix =  0.700 |ddv_scf|^2 =  3.026E-12

      iter #   7 total cpu time :   107.6 secs   av.it.:  10.8
      thresh= 1.740E-07 alpha_mix =  0.700 |ddv_scf|^2 =  1.400E-13

     End of self-consistent calculation

     Convergence has been achieved 


     Representation #  5 mode #   5

     Self-consistent Calculation

      iter #   1 total cpu time :   108.7 secs   av.it.:   5.2
      thresh= 1.000E-02 alpha_mix =  0.700 |ddv_scf|^2 =  4.836E-07

      iter #   2 total cpu time :   110.1 secs   av.it.:  10.4
      thresh= 6.954E-05 alpha_mix =  0.700 |ddv_scf|^2 =  7.891E-08

      iter #   3 total cpu time :   111.6 secs   av.it.:  10.2
      thresh= 2.809E-05 alpha_mix =  0.700 |ddv_scf|^2 =  1.052E-09

      iter #   4 total cpu time :   112.9 secs   av.it.:   9.8
      thresh= 3.243E-06 alpha_mix =  0.700 |ddv_scf|^2 =  2.467E-12

      iter #   5 total cpu time :   114.2 secs   av.it.:  10.3
      thresh= 1.571E-07 alpha_mix =  0.700 |ddv_scf|^2 =  6.961E-14

     End of self-consistent calculation

     Convergence has been achieved 


     Representation #  6 mode #   6

     Self-consistent Calculation

      iter #   1 total cpu time :   115.2 secs   av.it.:   5.2
      thresh= 1.000E-02 alpha_mix =  0.700 |ddv_scf|^2 =  4.836E-07

      iter #   2 total cpu time :   116.6 secs   av.it.:  10.4
[...]
        k(   59) = (  -0.8750000   0.1250000  -0.1250000), wk =   0.0625000
        k(   60) = (  -1.3750000  -0.8750000  -0.1250000), wk =   0.0000000
        k(   61) = (  -1.1250000   0.3750000  -0.3750000), wk =   0.0625000
        k(   62) = (  -1.6250000  -0.6250000  -0.3750000), wk =   0.0000000
        k(   63) = (  -0.3750000   0.3750000   1.1250000), wk =   0.0625000
        k(   64) = (  -0.8750000  -0.6250000   1.1250000), wk =   0.0000000

     Dense  grid:    17261 G-vectors     FFT dimensions: (  40,  40,  40)

     Smooth grid:     6183 G-vectors     FFT dimensions: (  25,  25,  25)

     Estimated max dynamical RAM per process >       1.78MB

     Estimated total allocated dynamical RAM >       7.14MB

     The potential is recalculated from file :
     ./_ph0/silicon.10.338.save/charge-density.dat

     Starting wfc are    8 atomic wfcs

     Band Structure Calculation
     Davidson diagonalization with overlap

     ethr =  1.25E-10,  avg # of iterations = 12.1

     total cpu time spent up to now is       10.7 secs

     End of band structure calculation

          k =-0.1250 0.1250 0.1250 (   770 PWs)   bands (ev):

    -5.6426   4.3741   5.6834   5.6834

          k =-0.6250-0.8750 0.1250 (   757 PWs)   bands (ev):

    -2.4495  -0.9098   2.0018   3.0763

          k =-0.3750 0.3750-0.1250 (   773 PWs)   bands (ev):

    -4.6178   1.3846   3.7006   5.2038

          k =-0.8750-0.6250-0.1250 (   757 PWs)   bands (ev):

    -2.4495  -0.9098   2.0018   3.0763

          k = 0.3750-0.3750 0.6250 (   767 PWs)   bands (ev):

    -3.4806  -0.6895   3.7206   4.4339

          k =-0.1250-1.3750 0.6250 (   767 PWs)   bands (ev):

    -2.9857  -0.6065   2.0593   4.1175

          k = 0.1250-0.1250 0.3750 (   774 PWs)   bands (ev):

    -5.1156   2.7589   4.6774   4.7405

          k =-0.3750-1.1250 0.3750 (   767 PWs)   bands (ev):

    -2.9857  -0.6065   2.0593   4.1175

          k =-0.1250 0.6250 0.1250 (   768 PWs)   bands (ev):

    -4.0860   1.0492   3.3530   3.8049

          k =-0.6250-0.3750 0.1250 (   768 PWs)   bands (ev):

    -3.6714   0.1784   2.7120   4.0791

          k = 0.6250-0.1250 0.8750 (   757 PWs)   bands (ev):

    -2.4495  -0.9098   2.0018   3.0763

          k = 0.1250-1.1250 0.8750 (   762 PWs)   bands (ev):

    -2.6165  -0.8129   2.6104   3.3387

          k = 0.3750 0.1250 0.6250 (   768 PWs)   bands (ev):

    -3.6714   0.1784   2.7120   4.0791

          k =-0.1250-0.8750 0.6250 (   757 PWs)   bands (ev):

    -2.4495  -0.9098   2.0018   3.0763

          k =-0.1250-0.8750 0.1250 (   762 PWs)   bands (ev):

    -2.6165  -0.8129   2.6104   3.3387

          k =-0.6250-1.8750 0.1250 (   768 PWs)   bands (ev):

    -4.0860   1.0492   3.3530   3.8049

          k =-0.3750 0.3750 0.3750 (   763 PWs)   bands (ev):

    -4.1857   0.0973   4.8974   4.8974

          k =-0.8750-0.6250 0.3750 (   768 PWs)   bands (ev):

    -3.6714   0.1784   2.7120   4.0791

          k = 0.3750-0.3750 1.1250 (   767 PWs)   bands (ev):

    -2.9857  -0.6065   2.0593   4.1175

          k =-0.1250-1.3750 1.1250 (   757 PWs)   bands (ev):

    -2.4495  -0.9098   2.0018   3.0763

          k = 0.1250-0.3750 0.3750 (   773 PWs)   bands (ev):

    -4.6178   1.3846   3.7006   5.2038

          k =-0.3750-1.3750 0.3750 (   767 PWs)   bands (ev):

    -3.4806  -0.6895   3.7206   4.4339

          k = 0.3750-0.3750-0.1250 (   773 PWs)   bands (ev):

    -4.6178   1.3846   3.7006   5.2038

          k =-0.1250-1.3750-0.1250 (   768 PWs)   bands (ev):

    -4.0860   1.0492   3.3530   3.8049

          k =-0.6250 0.3750-0.3750 (   767 PWs)   bands (ev):

    -3.4806  -0.6895   3.7206   4.4339

          k =-1.1250-0.6250-0.3750 (   768 PWs)   bands (ev):

    -3.6714   0.1784   2.7120   4.0791

          k =-0.3750 0.3750 0.6250 (   767 PWs)   bands (ev):

    -3.4806  -0.6895   3.7206   4.4339

          k =-0.8750-0.6250 0.6250 (   773 PWs)   bands (ev):

    -4.6178   1.3846   3.7006   5.2038

          k =-0.3750 0.1250-0.1250 (   774 PWs)   bands (ev):

    -5.1156   2.7589   4.6774   4.7405

          k =-0.8750-0.8750-0.1250 (   762 PWs)   bands (ev):

    -2.6165  -0.8129   2.6104   3.3387

          k =-0.1250 0.1250 0.3750 (   774 PWs)   bands (ev):

    -5.1156   2.7589   4.6774   4.7405

          k =-0.6250-0.8750 0.3750 (   768 PWs)   bands (ev):

    -3.6714   0.1784   2.7120   4.0791

          k = 0.1250 0.6250-0.1250 (   768 PWs)   bands (ev):

    -4.0860   1.0492   3.3530   3.8049

          k =-0.3750-0.3750-0.1250 (   773 PWs)   bands (ev):

    -4.6178   1.3846   3.7006   5.2038

          k = 0.6250 0.1250-0.1250 (   768 PWs)   bands (ev):

    -4.0860   1.0492   3.3530   3.8049

          k = 0.1250-0.8750-0.1250 (   762 PWs)   bands (ev):

    -2.6165  -0.8129   2.6104   3.3387

          k =-0.8750 0.1250-0.6250 (   757 PWs)   bands (ev):

    -2.4495  -0.9098   2.0018   3.0763

          k =-1.3750-0.8750-0.6250 (   773 PWs)   bands (ev):

    -4.6178   1.3846   3.7006   5.2038

          k = 0.8750-0.1250 0.6250 (   757 PWs)   bands (ev):

    -2.4495  -0.9098   2.0018   3.0763

          k = 0.3750-1.1250 0.6250 (   768 PWs)   bands (ev):

    -3.6714   0.1784   2.7120   4.0791

          k =-0.6250 0.1250 0.8750 (   757 PWs)   bands (ev):

    -2.4495  -0.9098   2.0018   3.0763

          k =-1.1250-0.8750 0.8750 (   770 PWs)   bands (ev):

    -5.6426   4.3741   5.6834   5.6834

          k =-0.1250 0.8750 0.6250 (   757 PWs)   bands (ev):

    -2.4495  -0.9098   2.0018   3.0763

          k =-0.6250-0.1250 0.6250 (   767 PWs)   bands (ev):

    -2.9857  -0.6065   2.0593   4.1175

          k = 0.1250 0.8750-0.6250 (   757 PWs)   bands (ev):

    -2.4495  -0.9098   2.0018   3.0763

          k =-0.3750-0.1250-0.6250 (   768 PWs)   bands (ev):

    -3.6714   0.1784   2.7120   4.0791

          k =-0.6250-0.1250-0.3750 (   768 PWs)   bands (ev):

    -3.6714   0.1784   2.7120   4.0791

          k =-1.1250-1.1250-0.3750 (   768 PWs)   bands (ev):

    -4.0860   1.0492   3.3530   3.8049

          k = 0.6250 0.1250 0.3750 (   768 PWs)   bands (ev):

    -3.6714   0.1784   2.7120   4.0791

          k = 0.1250-0.8750 0.3750 (   757 PWs)   bands (ev):

    -2.4495  -0.9098   2.0018   3.0763

          k =-0.3750-0.1250 0.6250 (   768 PWs)   bands (ev):

    -3.6714   0.1784   2.7120   4.0791

          k =-0.8750-1.1250 0.6250 (   774 PWs)   bands (ev):

    -5.1156   2.7589   4.6774   4.7405

          k = 0.1250 0.6250 0.3750 (   768 PWs)   bands (ev):

    -3.6714   0.1784   2.7120   4.0791

          k =-0.3750-0.3750 0.3750 (   763 PWs)   bands (ev):

    -4.1857   0.0973   4.8974   4.8974

          k =-0.1250 0.6250-0.3750 (   768 PWs)   bands (ev):

    -3.6714   0.1784   2.7120   4.0791

          k =-0.6250-0.3750-0.3750 (   767 PWs)   bands (ev):

    -3.4806  -0.6895   3.7206   4.4339

          k = 0.1250-0.8750-0.1250 (   762 PWs)   bands (ev):

    -2.6165  -0.8129   2.6104   3.3387

          k =-0.3750-1.8750-0.1250 (   774 PWs)   bands (ev):

    -5.1156   2.7589   4.6774   4.7405

          k =-0.8750 0.1250-0.1250 (   762 PWs)   bands (ev):

    -2.6165  -0.8129   2.6104   3.3387

          k =-1.3750-0.8750-0.1250 (   757 PWs)   bands (ev):

    -2.4495  -0.9098   2.0018   3.0763

          k =-1.1250 0.3750-0.3750 (   767 PWs)   bands (ev):

    -2.9857  -0.6065   2.0593   4.1175

          k =-1.6250-0.6250-0.3750 (   767 PWs)   bands (ev):

    -3.4806  -0.6895   3.7206   4.4339

          k =-0.3750 0.3750 1.1250 (   767 PWs)   bands (ev):

    -2.9857  -0.6065   2.0593   4.1175

          k =-0.8750-0.6250 1.1250 (   774 PWs)   bands (ev):

    -5.1156   2.7589   4.6774   4.7405

     highest occupied level (ev):     5.6834

     Writing output data file silicon.10.338.save

                                                                                

     bravais-lattice index     =            2
     lattice parameter (alat)  =      10.3380  a.u.
     unit-cell volume          =     276.2165 (a.u.)^3
     number of atoms/cell      =            2
     number of atomic types    =            1
     kinetic-energy cut-off    =      30.0000  Ry
     charge density cut-off    =     240.0000  Ry
     convergence threshold     =      1.0E-12
     beta                      =       0.7000
     number of iterations used =            4
     Exchange-correlation      = SLA  PW   PBE  PBE ( 1  4  3  4 0 0)


     celldm(1)=   10.33800  celldm(2)=    0.00000  celldm(3)=    0.00000
     celldm(4)=    0.00000  celldm(5)=    0.00000  celldm(6)=    0.00000

     crystal axes: (cart. coord. in units of alat)
               a(1) = ( -0.5000  0.0000  0.5000 )  
               a(2) = (  0.0000  0.5000  0.5000 )  
               a(3) = ( -0.5000  0.5000  0.0000 )  

     reciprocal axes: (cart. coord. in units 2 pi/alat)
               b(1) = ( -1.0000 -1.0000  1.0000 )  
               b(2) = (  1.0000  1.0000  1.0000 )  
               b(3) = ( -1.0000  1.0000 -1.0000 )  


     Atoms inside the unit cell: 

     Cartesian axes

     site n.  atom      mass           positions (alat units)
        1     Si  28.0860   tau(    1) = (    0.00000    0.00000    0.00000  )
        2     Si  28.0860   tau(    2) = (    0.25000    0.25000    0.25000  )

     Computing dynamical matrix for 
                    q = (  -0.5000000  -1.0000000   0.0000000 )

      8 Sym.Ops. (no q -> -q+G )


     G cutoff =  649.7175  (   4316 G-vectors)     FFT grid: ( 40, 40, 40)
     G cutoff =  324.8587  (   1546 G-vectors)  smooth grid: ( 25, 25, 25)
     number of k points=    64

     PseudoPot. # 1 for Si read from file:
     /home/s1333534/quantum_espresso/qe-6.1/pseudo/si_pbe_v1.uspp.F.UPF.txt
     MD5 check sum: a056efeee980c13900f22a371efd63c1
     Pseudo is Ultrasoft + core correction, Zval =  4.0
     Generated by new atomic code, or converted to UPF format
     Using radial grid of  899 points,  6 beta functions with: 
                l(1) =   0
                l(2) =   0
                l(3) =   1
                l(4) =   1
                l(5) =   2
                l(6) =   2
     Q(r) pseudized with  8 coefficients,  rinner =    0.900   0.900   0.900
                                                       0.900   0.900


     Atomic displacements:
     There are   3 irreducible representations

     Representation     1      2 modes -  To be done

     Representation     2      2 modes -  To be done

     Representation     3      2 modes -  To be done



     Alpha used in Ewald sum =   2.5000
     PHONON       :  2m 7.27s CPU     2m40.85s WALL



     Representation #  1 modes #   1  2

     Self-consistent Calculation

      iter #   1 total cpu time :   161.7 secs   av.it.:   5.7
      thresh= 1.000E-02 alpha_mix =  0.700 |ddv_scf|^2 =  7.872E-07

      iter #   2 total cpu time :   162.5 secs   av.it.:  11.8
      thresh= 8.873E-05 alpha_mix =  0.700 |ddv_scf|^2 =  4.455E-07

      iter #   3 total cpu time :   163.4 secs   av.it.:  11.3
      thresh= 6.674E-05 alpha_mix =  0.700 |ddv_scf|^2 =  4.287E-10

      iter #   4 total cpu time :   164.3 secs   av.it.:  11.1
      thresh= 2.071E-06 alpha_mix =  0.700 |ddv_scf|^2 =  1.927E-12

      iter #   5 total cpu time :   165.0 secs   av.it.:  11.3
      thresh= 1.388E-07 alpha_mix =  0.700 |ddv_scf|^2 =  5.063E-14

     End of self-consistent calculation

     Convergence has been achieved 


     Representation #  2 modes #   3  4

     Self-consistent Calculation

      iter #   1 total cpu time :   165.7 secs   av.it.:   5.6
      thresh= 1.000E-02 alpha_mix =  0.700 |ddv_scf|^2 =  1.222E-06

      iter #   2 total cpu time :   166.7 secs   av.it.:  11.8
      thresh= 1.106E-04 alpha_mix =  0.700 |ddv_scf|^2 =  1.660E-06

      iter #   3 total cpu time :   167.5 secs   av.it.:  11.0
      thresh= 1.289E-04 alpha_mix =  0.700 |ddv_scf|^2 =  5.093E-10

      iter #   4 total cpu time :   168.4 secs   av.it.:  11.0
      thresh= 2.257E-06 alpha_mix =  0.700 |ddv_scf|^2 =  7.996E-12

      iter #   5 total cpu time :   169.1 secs   av.it.:  11.3
      thresh= 2.828E-07 alpha_mix =  0.700 |ddv_scf|^2 =  1.317E-13

     End of self-consistent calculation

     Convergence has been achieved 


     Representation #  3 modes #   5  6

     Self-consistent Calculation

      iter #   1 total cpu time :   169.8 secs   av.it.:   5.3
      thresh= 1.000E-02 alpha_mix =  0.700 |ddv_scf|^2 =  3.198E-07

      iter #   2 total cpu time :   170.7 secs   av.it.:  11.8
      thresh= 5.655E-05 alpha_mix =  0.700 |ddv_scf|^2 =  1.867E-07

      iter #   3 total cpu time :   171.6 secs   av.it.:  11.2
      thresh= 4.321E-05 alpha_mix =  0.700 |ddv_scf|^2 =  3.721E-10

      iter #   4 total cpu time :   172.4 secs   av.it.:  11.1
      thresh= 1.929E-06 alpha_mix =  0.700 |ddv_scf|^2 =  4.391E-12

      iter #   5 total cpu time :   173.2 secs   av.it.:  11.2
      thresh= 2.095E-07 alpha_mix =  0.700 |ddv_scf|^2 =  6.055E-14

     End of self-consistent calculation

     Convergence has been achieved 

     Number of q in the star =    6
     List of q in the star:
          1  -0.500000000  -1.000000000   0.000000000
          2   0.000000000   1.000000000   0.500000000
          3   0.000000000  -1.000000000  -0.500000000
          4   0.500000000   1.000000000   0.000000000
          5  -1.000000000  -0.500000000   0.000000000
          6   0.000000000  -0.500000000  -1.000000000

     Diagonalizing the dynamical matrix

     q = (   -0.500000000  -1.000000000   0.000000000 ) 

 **************************************************************************
     freq (    1) =       6.022952 [THz] =     200.904063 [cm-1]
     freq (    2) =       6.022952 [THz] =     200.904063 [cm-1]
     freq (    3) =      10.308394 [THz] =     343.851025 [cm-1]
     freq (    4) =      10.308394 [THz] =     343.851025 [cm-1]
     freq (    5) =      13.529641 [THz] =     451.300250 [cm-1]
     freq (    6) =      13.529641 [THz] =     451.300250 [cm-1]
 **************************************************************************

     init_run     :      1.27s CPU      1.31s WALL (       7 calls)
     electrons    :      7.35s CPU      7.96s WALL (       7 calls)

     Called by init_run:
     wfcinit      :      0.00s CPU      0.02s WALL (       7 calls)
     potinit      :      0.10s CPU      0.12s WALL (       7 calls)

     Called by electrons:
     c_bands      :      7.35s CPU      7.96s WALL (       7 calls)
     v_of_rho     :      0.09s CPU      0.09s WALL (       8 calls)
     newd         :      0.12s CPU      0.12s WALL (       8 calls)

     Called by c_bands:
     init_us_2    :      1.63s CPU      1.58s WALL (   15896 calls)
     cegterg      :      6.15s CPU      6.65s WALL (     796 calls)

     Called by sum_band:

     Called by *egterg:
     h_psi        :     70.53s CPU     75.87s WALL (  154633 calls)
     s_psi        :      5.91s CPU      7.05s WALL (  311524 calls)
     g_psi        :      0.05s CPU      0.07s WALL (    9666 calls)
     cdiaghg      :      0.57s CPU      0.57s WALL (   10462 calls)

     Called by h_psi:
     h_psi:pot    :     70.12s CPU     75.35s WALL (  154633 calls)
     h_psi:calbec :      3.56s CPU      4.06s WALL (  154633 calls)
     vloc_psi     :     61.93s CPU     67.10s WALL (  154633 calls)
     add_vuspsi   :      4.29s CPU      3.72s WALL (  154633 calls)

     General routines
     calbec       :      8.18s CPU      8.68s WALL (  345832 calls)
     fft          :      1.88s CPU      1.95s WALL (    5233 calls)
     ffts         :      0.21s CPU      0.23s WALL (    3316 calls)
     fftw         :     63.56s CPU     67.82s WALL ( 1384502 calls)
     interpolate  :      0.28s CPU      0.30s WALL (     568 calls)
     davcio       :      0.34s CPU      1.09s WALL (   69130 calls)

     Parallel routines
     fft_scatter  :     15.34s CPU     19.88s WALL ( 1393051 calls)

     PHONON       :  2m16.94s CPU     2m53.59s WALL

     INITIALIZATION: 
     phq_setup    :      0.30s CPU      0.48s WALL (       8 calls)
     phq_init     :      6.86s CPU      7.35s WALL (       8 calls)

     phq_init     :      6.86s CPU      7.35s WALL (       8 calls)
     set_drhoc    :      1.83s CPU      1.84s WALL (      24 calls)
     init_vloc    :      0.02s CPU      0.03s WALL (       8 calls)
     init_us_1    :      0.97s CPU      0.97s WALL (       8 calls)
     newd         :      0.12s CPU      0.12s WALL (       8 calls)
     dvanqq       :      1.16s CPU      1.16s WALL (       8 calls)
     drho         :      2.62s CPU      2.70s WALL (       8 calls)

     DYNAMICAL MATRIX:
     dynmat0      :      1.74s CPU      1.84s WALL (       8 calls)
     phqscf       :    115.96s CPU    147.03s WALL (       8 calls)
     dynmatrix    :      0.01s CPU      0.21s WALL (       8 calls)

     phqscf       :    115.96s CPU    147.03s WALL (       8 calls)
     solve_linter :    115.09s CPU    144.38s WALL (      32 calls)
     drhodv       :      0.58s CPU      0.60s WALL (      32 calls)

     dynmat0      :      1.74s CPU      1.84s WALL (       8 calls)
     dynmat_us    :      0.39s CPU      0.39s WALL (       8 calls)
     d2ionq       :      0.04s CPU      0.04s WALL (       8 calls)
     dynmatcc     :      1.30s CPU      1.31s WALL (       8 calls)

     dynmat_us    :      0.39s CPU      0.39s WALL (       8 calls)
     addusdynmat  :      0.00s CPU      0.00s WALL (       8 calls)

     phqscf       :    115.96s CPU    147.03s WALL (       8 calls)
     solve_linter :    115.09s CPU    144.38s WALL (      32 calls)

     solve_linter :    115.09s CPU    144.38s WALL (      32 calls)
     dvqpsi_us    :      2.12s CPU      2.27s WALL (    2508 calls)
     ortho        :      1.01s CPU      1.15s WALL (   13486 calls)
     cgsolve      :     78.13s CPU     85.19s WALL (   13486 calls)
     incdrhoscf   :      6.25s CPU      6.84s WALL (   13486 calls)
     addusddens   :      7.06s CPU      7.13s WALL (     200 calls)
     vpsifft      :      4.45s CPU      4.87s WALL (   10858 calls)
     dv_of_drho   :      1.73s CPU      1.78s WALL (     254 calls)
     mix_pot      :      0.38s CPU     11.45s WALL (     173 calls)
     psymdvscf    :      5.85s CPU      5.91s WALL (     168 calls)
     newdq        :      7.69s CPU      7.72s WALL (     173 calls)
     adddvscf     :      0.45s CPU      0.43s WALL (   10978 calls)
     drhodvus     :      0.01s CPU      0.02s WALL (      32 calls)

     dvqpsi_us    :      2.12s CPU      2.27s WALL (    2508 calls)
     dvqpsi_us_on :      0.91s CPU      0.94s WALL (    2508 calls)

     cgsolve      :     78.13s CPU     85.19s WALL (   13486 calls)
     ch_psi       :     77.00s CPU     83.43s WALL (  143375 calls)

     ch_psi       :     77.00s CPU     83.43s WALL (  143375 calls)
     h_psi        :     70.53s CPU     75.87s WALL (  154633 calls)
     last         :      9.12s CPU      9.30s WALL (  143375 calls)

     h_psi        :     70.53s CPU     75.87s WALL (  154633 calls)
     add_vuspsi   :      4.29s CPU      3.72s WALL (  154633 calls)

     incdrhoscf   :      6.25s CPU      6.84s WALL (   13486 calls)
     addusdbec    :      0.49s CPU      0.52s WALL (   15934 calls)

     drhodvus     :      0.01s CPU      0.02s WALL (      32 calls)

      General routines
     calbec       :      8.18s CPU      8.68s WALL (  345832 calls)
     fft          :      1.88s CPU      1.95s WALL (    5233 calls)
     ffts         :      0.21s CPU      0.23s WALL (    3316 calls)
     fftw         :     63.56s CPU     67.82s WALL ( 1384502 calls)
     davcio       :      0.34s CPU      1.09s WALL (   69130 calls)
     write_rec    :      0.23s CPU     11.64s WALL (     205 calls)


     PHONON       :  2m16.94s CPU     2m53.59s WALL


   This run was terminated on:  15:50:57  10Nov2017            

=------------------------------------------------------------------------------=
   JOB DONE.
=------------------------------------------------------------------------------=
