
     Program PWSCF v.6.1 (svn rev. 13369) starts on 10Nov2017 at 10:14:55 

     This program is part of the open-source Quantum ESPRESSO suite
     for quantum simulation of materials; please cite
         "P. Giannozzi et al., J. Phys.:Condens. Matter 21 395502 (2009);
          URL http://www.quantum-espresso.org", 
     in publications or presentations arising from this work. More details at
     http://www.quantum-espresso.org/quote

     Parallel version (MPI), running on     4 processors
     R & G space division:  proc/nbgrp/npool/nimage =       4
     Waiting for input...
     Reading input from standard input
     Message from routine read_cards :
     DEPRECATED: no units specified in ATOMIC_POSITIONS card
     Message from routine read_cards :
     ATOMIC_POSITIONS: units set to alat

     Current dimensions of program PWSCF are:
     Max number of different atomic species (ntypx) = 10
     Max number of k-points (npk) =  40000
     Max angular momentum in pseudopotentials (lmaxx) =  3

     Subspace diagonalization in iterative solution of the eigenvalue problem:
     a serial algorithm will be used


     Parallelization info
     --------------------
     sticks:   dense  smooth     PW     G-vecs:    dense   smooth      PW
     Min         222     109     37                 4369     1545     309
     Max         223     110     38                 4370     1546     312
     Sum         889     439    151                17477     6183    1243



     bravais-lattice index     =            2
     lattice parameter (alat)  =      10.3800  a.u.
     unit-cell volume          =     279.5967 (a.u.)^3
     number of atoms/cell      =            2
     number of atomic types    =            1
     number of electrons       =         8.00
     number of Kohn-Sham states=            4
     kinetic-energy cutoff     =      30.0000  Ry
     charge density cutoff     =     240.0000  Ry
     convergence threshold     =      1.0E-08
     mixing beta               =       0.7000
     number of iterations used =            8  plain     mixing
     Exchange-correlation      = SLA  PW   PBE  PBE ( 1  4  3  4 0 0)

     celldm(1)=  10.380000  celldm(2)=   0.000000  celldm(3)=   0.000000
     celldm(4)=   0.000000  celldm(5)=   0.000000  celldm(6)=   0.000000

     crystal axes: (cart. coord. in units of alat)
               a(1) = (  -0.500000   0.000000   0.500000 )  
               a(2) = (   0.000000   0.500000   0.500000 )  
               a(3) = (  -0.500000   0.500000   0.000000 )  

     reciprocal axes: (cart. coord. in units 2 pi/alat)
               b(1) = ( -1.000000 -1.000000  1.000000 )  
               b(2) = (  1.000000  1.000000  1.000000 )  
               b(3) = ( -1.000000  1.000000 -1.000000 )  


     PseudoPot. # 1 for Si read from file:
     /home/max/quantum_espresso/qe-6.1/pseudo/si_pbe_v1.uspp.F.UPF.txt
     MD5 check sum: a056efeee980c13900f22a371efd63c1
     Pseudo is Ultrasoft + core correction, Zval =  4.0
     Generated by new atomic code, or converted to UPF format
     Using radial grid of  899 points,  6 beta functions with: 
                l(1) =   0
                l(2) =   0
                l(3) =   1
                l(4) =   1
                l(5) =   2
                l(6) =   2
     Q(r) pseudized with  8 coefficients,  rinner =    0.900   0.900   0.900
                                                       0.900   0.900

     atomic species   valence    mass     pseudopotential
        Si             4.00    28.08600     Si( 1.00)

     48 Sym. Ops., with inversion, found (24 have fractional translation)



   Cartesian axes

     site n.     atom                  positions (alat units)
         1           Si  tau(   1) = (   0.0000000   0.0000000   0.0000000  )
         2           Si  tau(   2) = (   0.2500000   0.2500000   0.2500000  )

     number of k points=    28
                       cart. coord. in units 2pi/alat
        k(    1) = (  -0.0833333   0.0833333   0.0833333), wk =   0.0185185
        k(    2) = (  -0.2500000   0.2500000  -0.0833333), wk =   0.0555556
        k(    3) = (  -0.4166667   0.4166667  -0.2500000), wk =   0.0555556
        k(    4) = (   0.4166667  -0.4166667   0.5833333), wk =   0.0555556
        k(    5) = (   0.2500000  -0.2500000   0.4166667), wk =   0.0555556
        k(    6) = (   0.0833333  -0.0833333   0.2500000), wk =   0.0555556
        k(    7) = (  -0.0833333   0.4166667   0.0833333), wk =   0.0555556
        k(    8) = (  -0.2500000   0.5833333  -0.0833333), wk =   0.1111111
        k(    9) = (   0.5833333  -0.2500000   0.7500000), wk =   0.1111111
        k(   10) = (   0.4166667  -0.0833333   0.5833333), wk =   0.1111111
        k(   11) = (   0.2500000   0.0833333   0.4166667), wk =   0.1111111
        k(   12) = (  -0.0833333   0.7500000   0.0833333), wk =   0.0555556
        k(   13) = (   0.7500000  -0.0833333   0.9166667), wk =   0.1111111
        k(   14) = (   0.5833333   0.0833333   0.7500000), wk =   0.1111111
        k(   15) = (   0.4166667   0.2500000   0.5833333), wk =   0.1111111
        k(   16) = (  -0.0833333  -0.9166667   0.0833333), wk =   0.0555556
        k(   17) = (  -0.2500000  -0.7500000  -0.0833333), wk =   0.1111111
        k(   18) = (  -0.0833333  -0.5833333   0.0833333), wk =   0.0555556
        k(   19) = (  -0.2500000   0.2500000   0.2500000), wk =   0.0185185
        k(   20) = (  -0.4166667   0.4166667   0.0833333), wk =   0.0555556
        k(   21) = (   0.4166667  -0.4166667   0.9166667), wk =   0.0555556
        k(   22) = (   0.2500000  -0.2500000   0.7500000), wk =   0.0555556
        k(   23) = (  -0.2500000   0.5833333   0.2500000), wk =   0.0555556
        k(   24) = (   0.5833333  -0.2500000   1.0833333), wk =   0.1111111
        k(   25) = (   0.4166667  -0.0833333   0.9166667), wk =   0.1111111
        k(   26) = (  -0.2500000  -1.0833333   0.2500000), wk =   0.0555556
        k(   27) = (  -0.4166667   0.4166667   0.4166667), wk =   0.0185185
        k(   28) = (   0.4166667  -0.4166667   1.2500000), wk =   0.0555556

     Dense  grid:    17477 G-vectors     FFT dimensions: (  40,  40,  40)

     Smooth grid:     6183 G-vectors     FFT dimensions: (  25,  25,  25)

     Estimated max dynamical RAM per process >       3.38MB

     Estimated total allocated dynamical RAM >      13.53MB

     Initial potential from superposition of free atoms

     starting charge    7.99866, renormalised to    8.00000
     Starting wfc are    8 randomized atomic wfcs

     total cpu time spent up to now is        0.7 secs

     per-process dynamical memory:     9.9 Mb

     Self-consistent Calculation

     iteration #  1     ecut=    30.00 Ry     beta=0.70
     Davidson diagonalization with overlap
     ethr =  1.00E-02,  avg # of iterations =  2.0

     Threshold (ethr) on eigenvalues was too large:
     Diagonalizing with lowered threshold

     Davidson diagonalization with overlap
     ethr =  6.62E-04,  avg # of iterations =  1.0

     total cpu time spent up to now is        1.2 secs

     total energy              =     -19.19120760 Ry
     Harris-Foulkes estimate   =     -19.20311436 Ry
     estimated scf accuracy    <       0.05250347 Ry

     iteration #  2     ecut=    30.00 Ry     beta=0.70
     Davidson diagonalization with overlap
     ethr =  6.56E-04,  avg # of iterations =  1.0

     total cpu time spent up to now is        1.4 secs

     total energy              =     -19.19286375 Ry
     Harris-Foulkes estimate   =     -19.19303314 Ry
     estimated scf accuracy    <       0.00244699 Ry

     iteration #  3     ecut=    30.00 Ry     beta=0.70
     Davidson diagonalization with overlap
     ethr =  3.06E-05,  avg # of iterations =  2.1

     total cpu time spent up to now is        1.6 secs

     total energy              =     -19.19317773 Ry
     Harris-Foulkes estimate   =     -19.19319036 Ry
     estimated scf accuracy    <       0.00004097 Ry

     iteration #  4     ecut=    30.00 Ry     beta=0.70
     Davidson diagonalization with overlap
     ethr =  5.12E-07,  avg # of iterations =  3.4

     total cpu time spent up to now is        1.9 secs

     total energy              =     -19.19321599 Ry
     Harris-Foulkes estimate   =     -19.19321679 Ry
     estimated scf accuracy    <       0.00000296 Ry

     iteration #  5     ecut=    30.00 Ry     beta=0.70
     Davidson diagonalization with overlap
     ethr =  3.70E-08,  avg # of iterations =  2.0

     total cpu time spent up to now is        2.1 secs

     End of self-consistent calculation

          k =-0.0833 0.0833 0.0833 (   773 PWs)   bands (ev):

    -5.7972   4.9819   5.7030   5.7030

          k =-0.2500 0.2500-0.0833 (   786 PWs)   bands (ev):

    -5.3333   2.9267   4.5018   5.4943

          k =-0.4167 0.4167-0.2500 (   777 PWs)   bands (ev):

    -4.2734   0.2335   4.0398   4.8731

          k = 0.4167-0.4167 0.5833 (   779 PWs)   bands (ev):

    -3.6025  -0.8733   4.0993   4.5040

          k = 0.2500-0.2500 0.4167 (   780 PWs)   bands (ev):

    -4.6721   1.0575   4.5663   4.5859

          k = 0.0833-0.0833 0.2500 (   781 PWs)   bands (ev):

    -5.5629   3.9173   5.0777   5.2481

          k =-0.0833 0.4167 0.0833 (   785 PWs)   bands (ev):

    -5.0983   2.7211   4.3447   4.3674

          k =-0.2500 0.5833-0.0833 (   777 PWs)   bands (ev):

    -4.2133   0.9186   3.0681   3.9888

          k = 0.5833-0.2500 0.7500 (   777 PWs)   bands (ev):

    -3.1367  -0.7716   2.4735   3.7705

          k = 0.4167-0.0833 0.5833 (   776 PWs)   bands (ev):

    -3.8318   0.2479   2.4434   4.2401

          k = 0.2500 0.0833 0.4167 (   779 PWs)   bands (ev):

    -4.8794   1.9139   3.7451   4.8846

          k =-0.0833 0.7500 0.0833 (   777 PWs)   bands (ev):

    -3.5198   0.0947   3.0377   3.3637

          k = 0.7500-0.0833 0.9167 (   770 PWs)   bands (ev):

    -2.3597  -1.2136   2.2269   2.9734

          k = 0.5833 0.0833 0.7500 (   769 PWs)   bands (ev):

    -2.7275  -0.8731   1.7553   3.5026

          k = 0.4167 0.2500 0.5833 (   776 PWs)   bands (ev):

    -3.7263  -0.3967   3.3435   4.3335

          k =-0.0833-0.9167 0.0833 (   772 PWs)   bands (ev):

    -2.4455  -1.2198   2.7760   3.1534

          k =-0.2500-0.7500-0.0833 (   773 PWs)   bands (ev):

    -3.3578  -0.1204   2.5336   3.3048

          k =-0.0833-0.5833 0.0833 (   784 PWs)   bands (ev):

    -4.4122   1.4335   3.5647   3.7760

          k =-0.2500 0.2500 0.2500 (   784 PWs)   bands (ev):

    -5.1102   1.9764   5.1039   5.1039

          k =-0.4167 0.4167 0.0833 (   785 PWs)   bands (ev):

    -4.4502   1.0450   3.0323   4.9365

          k = 0.4167-0.4167 0.9167 (   779 PWs)   bands (ev):

    -3.3084  -0.3721   1.9611   4.1742

          k = 0.2500-0.2500 0.7500 (   777 PWs)   bands (ev):

    -3.2561  -0.4501   2.4211   3.7068

          k =-0.2500 0.5833 0.2500 (   781 PWs)   bands (ev):

    -4.0390   0.2616   3.4701   4.0701

          k = 0.5833-0.2500 1.0833 (   770 PWs)   bands (ev):

    -3.0670  -0.4938   2.0602   3.3057

          k = 0.4167-0.0833 0.9167 (   765 PWs)   bands (ev):

    -2.2608  -1.2212   1.9091   2.6608

          k =-0.2500-1.0833 0.2500 (   770 PWs)   bands (ev):

    -2.4665  -1.1215   1.7863   3.5173

          k =-0.4167 0.4167 0.4167 (   772 PWs)   bands (ev):

    -3.9571  -0.4846   4.7220   4.7220

          k = 0.4167-0.4167 1.2500 (   778 PWs)   bands (ev):

    -3.3726  -0.7881   2.9311   4.2967

     highest occupied level (ev):     5.7030

!    total energy              =     -19.19321638 Ry
     Harris-Foulkes estimate   =     -19.19321637 Ry
     estimated scf accuracy    <          9.8E-09 Ry

     The total energy is the sum of the following terms:

     one-electron contribution =       4.84861963 Ry
     hartree contribution      =       1.14576613 Ry
     xc contribution           =      -8.58090295 Ry
     ewald contribution        =     -16.60669918 Ry

     convergence has been achieved in   5 iterations

     Writing output data file silicon.10.38.save

     init_run     :      0.36s CPU      0.65s WALL (       1 calls)
     electrons    :      1.25s CPU      1.41s WALL (       1 calls)

     Called by init_run:
     wfcinit      :      0.10s CPU      0.21s WALL (       1 calls)
     potinit      :      0.02s CPU      0.09s WALL (       1 calls)

     Called by electrons:
     c_bands      :      0.73s CPU      0.82s WALL (       6 calls)
     sum_band     :      0.30s CPU      0.33s WALL (       6 calls)
     v_of_rho     :      0.10s CPU      0.16s WALL (       6 calls)
     newd         :      0.13s CPU      0.20s WALL (       6 calls)
     mix_rho      :      0.01s CPU      0.01s WALL (       6 calls)

     Called by c_bands:
     init_us_2    :      0.05s CPU      0.06s WALL (     364 calls)
     cegterg      :      0.61s CPU      0.69s WALL (     168 calls)

     Called by sum_band:
     sum_band:bec :      0.00s CPU      0.00s WALL (     168 calls)
     addusdens    :      0.14s CPU      0.15s WALL (       6 calls)

     Called by *egterg:
     h_psi        :      0.55s CPU      0.70s WALL (     518 calls)
     s_psi        :      0.04s CPU      0.05s WALL (     518 calls)
     g_psi        :      0.00s CPU      0.00s WALL (     322 calls)
     cdiaghg      :      0.04s CPU      0.04s WALL (     462 calls)

     Called by h_psi:
     h_psi:pot    :      0.54s CPU      0.70s WALL (     518 calls)
     h_psi:calbec :      0.06s CPU      0.08s WALL (     518 calls)
     vloc_psi     :      0.43s CPU      0.57s WALL (     518 calls)
     add_vuspsi   :      0.05s CPU      0.05s WALL (     518 calls)

     General routines
     calbec       :      0.08s CPU      0.11s WALL (     686 calls)
     fft          :      0.08s CPU      0.13s WALL (      96 calls)
     ffts         :      0.00s CPU      0.01s WALL (      12 calls)
     fftw         :      0.43s CPU      0.57s WALL (    4616 calls)
     interpolate  :      0.01s CPU      0.02s WALL (      12 calls)
     davcio       :      0.00s CPU      0.00s WALL (      28 calls)

     Parallel routines
     fft_scatter  :      0.21s CPU      0.37s WALL (    4724 calls)

     PWSCF        :     1.82s CPU         2.29s WALL


   This run was terminated on:  10:14:58  10Nov2017            

=------------------------------------------------------------------------------=
   JOB DONE.
=------------------------------------------------------------------------------=
