
     Program PWSCF v.6.1 (svn rev. 13369) starts on 10Nov2017 at 12: 7:52 

     This program is part of the open-source Quantum ESPRESSO suite
     for quantum simulation of materials; please cite
         "P. Giannozzi et al., J. Phys.:Condens. Matter 21 395502 (2009);
          URL http://www.quantum-espresso.org", 
     in publications or presentations arising from this work. More details at
     http://www.quantum-espresso.org/quote

     Parallel version (MPI), running on     4 processors
     R & G space division:  proc/nbgrp/npool/nimage =       4
     Waiting for input...
     Reading input from standard input
     Message from routine read_cards :
     DEPRECATED: no units specified in ATOMIC_POSITIONS card
     Message from routine read_cards :
     ATOMIC_POSITIONS: units set to alat

     Current dimensions of program PWSCF are:
     Max number of different atomic species (ntypx) = 10
     Max number of k-points (npk) =  40000
     Max angular momentum in pseudopotentials (lmaxx) =  3

     Subspace diagonalization in iterative solution of the eigenvalue problem:
     a serial algorithm will be used


     Parallelization info
     --------------------
     sticks:   dense  smooth     PW     G-vecs:    dense   smooth      PW
     Min          78      40     15                  958      340      82
     Max          79      41     16                  963      342      83
     Sum         313     163     61                 3839     1363     331



     bravais-lattice index     =            2
     lattice parameter (alat)  =      10.3330  a.u.
     unit-cell volume          =     275.8159 (a.u.)^3
     number of atoms/cell      =            2
     number of atomic types    =            1
     number of electrons       =         8.00
     number of Kohn-Sham states=            4
     kinetic-energy cutoff     =      11.0000  Ry
     charge density cutoff     =      88.0000  Ry
     convergence threshold     =      1.0E-08
     mixing beta               =       0.7000
     number of iterations used =            8  plain     mixing
     Exchange-correlation      = SLA  PW   PBE  PBE ( 1  4  3  4 0 0)

     celldm(1)=  10.333000  celldm(2)=   0.000000  celldm(3)=   0.000000
     celldm(4)=   0.000000  celldm(5)=   0.000000  celldm(6)=   0.000000

     crystal axes: (cart. coord. in units of alat)
               a(1) = (  -0.500000   0.000000   0.500000 )  
               a(2) = (   0.000000   0.500000   0.500000 )  
               a(3) = (  -0.500000   0.500000   0.000000 )  

     reciprocal axes: (cart. coord. in units 2 pi/alat)
               b(1) = ( -1.000000 -1.000000  1.000000 )  
               b(2) = (  1.000000  1.000000  1.000000 )  
               b(3) = ( -1.000000  1.000000 -1.000000 )  


     PseudoPot. # 1 for Si read from file:
     /home/max/quantum_espresso/qe-6.1/pseudo/si_pbe_v1.uspp.F.UPF.txt
     MD5 check sum: a056efeee980c13900f22a371efd63c1
     Pseudo is Ultrasoft + core correction, Zval =  4.0
     Generated by new atomic code, or converted to UPF format
     Using radial grid of  899 points,  6 beta functions with: 
                l(1) =   0
                l(2) =   0
                l(3) =   1
                l(4) =   1
                l(5) =   2
                l(6) =   2
     Q(r) pseudized with  8 coefficients,  rinner =    0.900   0.900   0.900
                                                       0.900   0.900

     atomic species   valence    mass     pseudopotential
        Si             4.00    28.08600     Si( 1.00)

     48 Sym. Ops., with inversion, found (24 have fractional translation)



   Cartesian axes

     site n.     atom                  positions (alat units)
         1           Si  tau(   1) = (   0.0000000   0.0000000   0.0000000  )
         2           Si  tau(   2) = (   0.2500000   0.2500000   0.2500000  )

     number of k points=    28
                       cart. coord. in units 2pi/alat
        k(    1) = (  -0.0833333   0.0833333   0.0833333), wk =   0.0185185
        k(    2) = (  -0.2500000   0.2500000  -0.0833333), wk =   0.0555556
        k(    3) = (  -0.4166667   0.4166667  -0.2500000), wk =   0.0555556
        k(    4) = (   0.4166667  -0.4166667   0.5833333), wk =   0.0555556
        k(    5) = (   0.2500000  -0.2500000   0.4166667), wk =   0.0555556
        k(    6) = (   0.0833333  -0.0833333   0.2500000), wk =   0.0555556
        k(    7) = (  -0.0833333   0.4166667   0.0833333), wk =   0.0555556
        k(    8) = (  -0.2500000   0.5833333  -0.0833333), wk =   0.1111111
        k(    9) = (   0.5833333  -0.2500000   0.7500000), wk =   0.1111111
        k(   10) = (   0.4166667  -0.0833333   0.5833333), wk =   0.1111111
        k(   11) = (   0.2500000   0.0833333   0.4166667), wk =   0.1111111
        k(   12) = (  -0.0833333   0.7500000   0.0833333), wk =   0.0555556
        k(   13) = (   0.7500000  -0.0833333   0.9166667), wk =   0.1111111
        k(   14) = (   0.5833333   0.0833333   0.7500000), wk =   0.1111111
        k(   15) = (   0.4166667   0.2500000   0.5833333), wk =   0.1111111
        k(   16) = (  -0.0833333  -0.9166667   0.0833333), wk =   0.0555556
        k(   17) = (  -0.2500000  -0.7500000  -0.0833333), wk =   0.1111111
        k(   18) = (  -0.0833333  -0.5833333   0.0833333), wk =   0.0555556
        k(   19) = (  -0.2500000   0.2500000   0.2500000), wk =   0.0185185
        k(   20) = (  -0.4166667   0.4166667   0.0833333), wk =   0.0555556
        k(   21) = (   0.4166667  -0.4166667   0.9166667), wk =   0.0555556
        k(   22) = (   0.2500000  -0.2500000   0.7500000), wk =   0.0555556
        k(   23) = (  -0.2500000   0.5833333   0.2500000), wk =   0.0555556
        k(   24) = (   0.5833333  -0.2500000   1.0833333), wk =   0.1111111
        k(   25) = (   0.4166667  -0.0833333   0.9166667), wk =   0.1111111
        k(   26) = (  -0.2500000  -1.0833333   0.2500000), wk =   0.0555556
        k(   27) = (  -0.4166667   0.4166667   0.4166667), wk =   0.0185185
        k(   28) = (   0.4166667  -0.4166667   1.2500000), wk =   0.0555556

     Dense  grid:     3839 G-vectors     FFT dimensions: (  24,  24,  24)

     Smooth grid:     1363 G-vectors     FFT dimensions: (  15,  15,  15)

     Estimated max dynamical RAM per process >       0.74MB

     Estimated total allocated dynamical RAM >       2.98MB

     Check: negative/imaginary core charge=   -0.000005    0.000000

     Initial potential from superposition of free atoms

     starting charge    7.99866, renormalised to    8.00000
     Starting wfc are    8 randomized atomic wfcs

     total cpu time spent up to now is        0.3 secs

     per-process dynamical memory:     7.2 Mb

     Self-consistent Calculation

     iteration #  1     ecut=    11.00 Ry     beta=0.70
     Davidson diagonalization with overlap
     ethr =  1.00E-02,  avg # of iterations =  2.0

     Threshold (ethr) on eigenvalues was too large:
     Diagonalizing with lowered threshold

     Davidson diagonalization with overlap
     ethr =  6.58E-04,  avg # of iterations =  1.0

     total cpu time spent up to now is        0.9 secs

     total energy              =     -19.16272242 Ry
     Harris-Foulkes estimate   =     -19.17349943 Ry
     estimated scf accuracy    <       0.05286610 Ry

     iteration #  2     ecut=    11.00 Ry     beta=0.70
     Davidson diagonalization with overlap
     ethr =  6.61E-04,  avg # of iterations =  1.0

     total cpu time spent up to now is        0.9 secs

     total energy              =     -19.16429806 Ry
     Harris-Foulkes estimate   =     -19.16443087 Ry
     estimated scf accuracy    <       0.00253365 Ry

     iteration #  3     ecut=    11.00 Ry     beta=0.70
     Davidson diagonalization with overlap
     ethr =  3.17E-05,  avg # of iterations =  1.8

     total cpu time spent up to now is        1.0 secs

     total energy              =     -19.16454747 Ry
     Harris-Foulkes estimate   =     -19.16455581 Ry
     estimated scf accuracy    <       0.00003708 Ry

     iteration #  4     ecut=    11.00 Ry     beta=0.70
     Davidson diagonalization with overlap
     ethr =  4.63E-07,  avg # of iterations =  2.7

     total cpu time spent up to now is        1.1 secs

     total energy              =     -19.16456386 Ry
     Harris-Foulkes estimate   =     -19.16456389 Ry
     estimated scf accuracy    <       0.00000063 Ry

     iteration #  5     ecut=    11.00 Ry     beta=0.70
     Davidson diagonalization with overlap
     ethr =  7.94E-09,  avg # of iterations =  2.5

     total cpu time spent up to now is        1.1 secs

     total energy              =     -19.16456406 Ry
     Harris-Foulkes estimate   =     -19.16456406 Ry
     estimated scf accuracy    <       0.00000002 Ry

     iteration #  6     ecut=    11.00 Ry     beta=0.70
     Davidson diagonalization with overlap
     ethr =  2.19E-10,  avg # of iterations =  2.5

     total cpu time spent up to now is        1.2 secs

     End of self-consistent calculation

          k =-0.0833 0.0833 0.0833 (   169 PWs)   bands (ev):

    -5.6907   5.1606   5.8640   5.8640

          k =-0.2500 0.2500-0.0833 (   167 PWs)   bands (ev):

    -5.2189   3.1114   4.6435   5.6503

          k =-0.4167 0.4167-0.2500 (   168 PWs)   bands (ev):

    -4.1360   0.3784   4.1803   5.0165

          k = 0.4167-0.4167 0.5833 (   168 PWs)   bands (ev):

    -3.4468  -0.7524   4.2453   4.6400

          k = 0.2500-0.2500 0.4167 (   163 PWs)   bands (ev):

    -4.5423   1.2231   4.7047   4.7447

          k = 0.0833-0.0833 0.2500 (   170 PWs)   bands (ev):

    -5.4549   4.1074   5.2216   5.4104

          k =-0.0833 0.4167 0.0833 (   168 PWs)   bands (ev):

    -4.9833   2.9279   4.4890   4.4966

          k =-0.2500 0.5833-0.0833 (   172 PWs)   bands (ev):

    -4.0855   1.1044   3.1897   4.1175

          k = 0.5833-0.2500 0.7500 (   170 PWs)   bands (ev):

    -2.9762  -0.6310   2.5967   3.8923

          k = 0.4167-0.0833 0.5833 (   169 PWs)   bands (ev):

    -3.6889   0.4158   2.5570   4.3721

          k = 0.2500 0.0833 0.4167 (   167 PWs)   bands (ev):

    -4.7589   2.1000   3.8784   5.0329

          k =-0.0833 0.7500 0.0833 (   170 PWs)   bands (ev):

    -3.3769   0.2909   3.1486   3.4787

          k = 0.7500-0.0833 0.9167 (   172 PWs)   bands (ev):

    -2.1959  -1.0394   2.3232   3.0815

          k = 0.5833 0.0833 0.7500 (   175 PWs)   bands (ev):

    -2.5704  -0.7138   1.8497   3.6191

          k = 0.4167 0.2500 0.5833 (   169 PWs)   bands (ev):

    -3.5759  -0.2602   3.4814   4.4680

          k =-0.0833-0.9167 0.0833 (   176 PWs)   bands (ev):

    -2.2932  -1.0472   2.8809   3.2639

          k =-0.2500-0.7500-0.0833 (   171 PWs)   bands (ev):

    -3.2109   0.0637   2.6414   3.4181

          k =-0.0833-0.5833 0.0833 (   170 PWs)   bands (ev):

    -4.2881   1.6421   3.6885   3.8970

          k =-0.2500 0.2500 0.2500 (   168 PWs)   bands (ev):

    -4.9937   2.1456   5.2502   5.2502

          k =-0.4167 0.4167 0.0833 (   168 PWs)   bands (ev):

    -4.3233   1.2210   3.1566   5.0797

          k = 0.4167-0.4167 0.9167 (   172 PWs)   bands (ev):

    -3.1579  -0.2143   2.0649   4.3022

          k = 0.2500-0.2500 0.7500 (   174 PWs)   bands (ev):

    -3.1079  -0.2930   2.5360   3.8267

          k =-0.2500 0.5833 0.2500 (   167 PWs)   bands (ev):

    -3.8973   0.4220   3.6148   4.1975

          k = 0.5833-0.2500 1.0833 (   172 PWs)   bands (ev):

    -2.9118  -0.3267   2.1626   3.4192

          k = 0.4167-0.0833 0.9167 (   171 PWs)   bands (ev):

    -2.0895  -1.0496   2.0009   2.7627

          k =-0.2500-1.0833 0.2500 (   176 PWs)   bands (ev):

    -2.3060  -0.9590   1.8765   3.6335

          k =-0.4167 0.4167 0.4167 (   168 PWs)   bands (ev):

    -3.8117  -0.3568   4.8627   4.8627

          k = 0.4167-0.4167 1.2500 (   170 PWs)   bands (ev):

    -3.2126  -0.6611   3.0623   4.4284

     highest occupied level (ev):     5.8640

!    total energy              =     -19.16456406 Ry
     Harris-Foulkes estimate   =     -19.16456407 Ry
     estimated scf accuracy    <          2.6E-09 Ry

     The total energy is the sum of the following terms:

     one-electron contribution =       4.98823870 Ry
     hartree contribution      =       1.12458476 Ry
     xc contribution           =      -8.59515221 Ry
     ewald contribution        =     -16.68223532 Ry

     convergence has been achieved in   6 iterations


     Computing stress (Cartesian axis) and pressure

          total   stress  (Ry/bohr**3)                   (kbar)     P=  -23.72
  -0.00016127   0.00000000   0.00000000        -23.72      0.00      0.00
   0.00000000  -0.00016127  -0.00000000          0.00    -23.72     -0.00
   0.00000000  -0.00000000  -0.00016127          0.00     -0.00    -23.72


     Writing output data file silicon.11.save

     init_run     :      0.17s CPU      0.18s WALL (       1 calls)
     electrons    :      0.50s CPU      0.93s WALL (       1 calls)
     stress       :      0.08s CPU      0.08s WALL (       1 calls)

     Called by init_run:
     wfcinit      :      0.02s CPU      0.02s WALL (       1 calls)
     potinit      :      0.01s CPU      0.01s WALL (       1 calls)

     Called by electrons:
     c_bands      :      0.35s CPU      0.77s WALL (       7 calls)
     sum_band     :      0.09s CPU      0.10s WALL (       7 calls)
     v_of_rho     :      0.02s CPU      0.03s WALL (       7 calls)
     newd         :      0.03s CPU      0.04s WALL (       7 calls)
     mix_rho      :      0.00s CPU      0.00s WALL (       7 calls)

     Called by c_bands:
     init_us_2    :      0.01s CPU      0.02s WALL (     448 calls)
     cegterg      :      0.30s CPU      0.68s WALL (     196 calls)

     Called by sum_band:
     sum_band:bec :      0.00s CPU      0.00s WALL (     196 calls)
     addusdens    :      0.04s CPU      0.05s WALL (       7 calls)

     Called by *egterg:
     h_psi        :      0.19s CPU      0.42s WALL (     603 calls)
     s_psi        :      0.02s CPU      0.02s WALL (     603 calls)
     g_psi        :      0.00s CPU      0.00s WALL (     379 calls)
     cdiaghg      :      0.05s CPU      0.10s WALL (     547 calls)

     Called by h_psi:
     h_psi:pot    :      0.19s CPU      0.41s WALL (     603 calls)
     h_psi:calbec :      0.04s CPU      0.10s WALL (     603 calls)
     vloc_psi     :      0.14s CPU      0.29s WALL (     603 calls)
     add_vuspsi   :      0.02s CPU      0.02s WALL (     603 calls)

     General routines
     calbec       :      0.04s CPU      0.11s WALL (     827 calls)
     fft          :      0.03s CPU      0.04s WALL (     126 calls)
     ffts         :      0.00s CPU      0.00s WALL (      14 calls)
     fftw         :      0.14s CPU      0.29s WALL (    5404 calls)
     interpolate  :      0.00s CPU      0.00s WALL (      14 calls)
     davcio       :      0.00s CPU      0.00s WALL (      28 calls)

     Parallel routines
     fft_scatter  :      0.10s CPU      0.26s WALL (    5544 calls)

     PWSCF        :     0.95s CPU         1.42s WALL


   This run was terminated on:  12: 7:53  10Nov2017            

=------------------------------------------------------------------------------=
   JOB DONE.
=------------------------------------------------------------------------------=
