
     Program PWSCF v.6.1 (svn rev. 13369) starts on 10Nov2017 at 12: 8: 4 

     This program is part of the open-source Quantum ESPRESSO suite
     for quantum simulation of materials; please cite
         "P. Giannozzi et al., J. Phys.:Condens. Matter 21 395502 (2009);
          URL http://www.quantum-espresso.org", 
     in publications or presentations arising from this work. More details at
     http://www.quantum-espresso.org/quote

     Parallel version (MPI), running on     4 processors
     R & G space division:  proc/nbgrp/npool/nimage =       4
     Waiting for input...
     Reading input from standard input
     Message from routine read_cards :
     DEPRECATED: no units specified in ATOMIC_POSITIONS card
     Message from routine read_cards :
     ATOMIC_POSITIONS: units set to alat

     Current dimensions of program PWSCF are:
     Max number of different atomic species (ntypx) = 10
     Max number of k-points (npk) =  40000
     Max angular momentum in pseudopotentials (lmaxx) =  3

     Subspace diagonalization in iterative solution of the eigenvalue problem:
     a serial algorithm will be used


     Parallelization info
     --------------------
     sticks:   dense  smooth     PW     G-vecs:    dense   smooth      PW
     Min         186      91     30                 3330     1161     234
     Max         187      92     31                 3333     1162     238
     Sum         745     367    121                13323     4645     941



     bravais-lattice index     =            2
     lattice parameter (alat)  =      10.3330  a.u.
     unit-cell volume          =     275.8159 (a.u.)^3
     number of atoms/cell      =            2
     number of atomic types    =            1
     number of electrons       =         8.00
     number of Kohn-Sham states=            4
     kinetic-energy cutoff     =      25.0000  Ry
     charge density cutoff     =     200.0000  Ry
     convergence threshold     =      1.0E-08
     mixing beta               =       0.7000
     number of iterations used =            8  plain     mixing
     Exchange-correlation      = SLA  PW   PBE  PBE ( 1  4  3  4 0 0)

     celldm(1)=  10.333000  celldm(2)=   0.000000  celldm(3)=   0.000000
     celldm(4)=   0.000000  celldm(5)=   0.000000  celldm(6)=   0.000000

     crystal axes: (cart. coord. in units of alat)
               a(1) = (  -0.500000   0.000000   0.500000 )  
               a(2) = (   0.000000   0.500000   0.500000 )  
               a(3) = (  -0.500000   0.500000   0.000000 )  

     reciprocal axes: (cart. coord. in units 2 pi/alat)
               b(1) = ( -1.000000 -1.000000  1.000000 )  
               b(2) = (  1.000000  1.000000  1.000000 )  
               b(3) = ( -1.000000  1.000000 -1.000000 )  


     PseudoPot. # 1 for Si read from file:
     /home/max/quantum_espresso/qe-6.1/pseudo/si_pbe_v1.uspp.F.UPF.txt
     MD5 check sum: a056efeee980c13900f22a371efd63c1
     Pseudo is Ultrasoft + core correction, Zval =  4.0
     Generated by new atomic code, or converted to UPF format
     Using radial grid of  899 points,  6 beta functions with: 
                l(1) =   0
                l(2) =   0
                l(3) =   1
                l(4) =   1
                l(5) =   2
                l(6) =   2
     Q(r) pseudized with  8 coefficients,  rinner =    0.900   0.900   0.900
                                                       0.900   0.900

     atomic species   valence    mass     pseudopotential
        Si             4.00    28.08600     Si( 1.00)

     48 Sym. Ops., with inversion, found (24 have fractional translation)



   Cartesian axes

     site n.     atom                  positions (alat units)
         1           Si  tau(   1) = (   0.0000000   0.0000000   0.0000000  )
         2           Si  tau(   2) = (   0.2500000   0.2500000   0.2500000  )

     number of k points=    28
                       cart. coord. in units 2pi/alat
        k(    1) = (  -0.0833333   0.0833333   0.0833333), wk =   0.0185185
        k(    2) = (  -0.2500000   0.2500000  -0.0833333), wk =   0.0555556
        k(    3) = (  -0.4166667   0.4166667  -0.2500000), wk =   0.0555556
        k(    4) = (   0.4166667  -0.4166667   0.5833333), wk =   0.0555556
        k(    5) = (   0.2500000  -0.2500000   0.4166667), wk =   0.0555556
        k(    6) = (   0.0833333  -0.0833333   0.2500000), wk =   0.0555556
        k(    7) = (  -0.0833333   0.4166667   0.0833333), wk =   0.0555556
        k(    8) = (  -0.2500000   0.5833333  -0.0833333), wk =   0.1111111
        k(    9) = (   0.5833333  -0.2500000   0.7500000), wk =   0.1111111
        k(   10) = (   0.4166667  -0.0833333   0.5833333), wk =   0.1111111
        k(   11) = (   0.2500000   0.0833333   0.4166667), wk =   0.1111111
        k(   12) = (  -0.0833333   0.7500000   0.0833333), wk =   0.0555556
        k(   13) = (   0.7500000  -0.0833333   0.9166667), wk =   0.1111111
        k(   14) = (   0.5833333   0.0833333   0.7500000), wk =   0.1111111
        k(   15) = (   0.4166667   0.2500000   0.5833333), wk =   0.1111111
        k(   16) = (  -0.0833333  -0.9166667   0.0833333), wk =   0.0555556
        k(   17) = (  -0.2500000  -0.7500000  -0.0833333), wk =   0.1111111
        k(   18) = (  -0.0833333  -0.5833333   0.0833333), wk =   0.0555556
        k(   19) = (  -0.2500000   0.2500000   0.2500000), wk =   0.0185185
        k(   20) = (  -0.4166667   0.4166667   0.0833333), wk =   0.0555556
        k(   21) = (   0.4166667  -0.4166667   0.9166667), wk =   0.0555556
        k(   22) = (   0.2500000  -0.2500000   0.7500000), wk =   0.0555556
        k(   23) = (  -0.2500000   0.5833333   0.2500000), wk =   0.0555556
        k(   24) = (   0.5833333  -0.2500000   1.0833333), wk =   0.1111111
        k(   25) = (   0.4166667  -0.0833333   0.9166667), wk =   0.1111111
        k(   26) = (  -0.2500000  -1.0833333   0.2500000), wk =   0.0555556
        k(   27) = (  -0.4166667   0.4166667   0.4166667), wk =   0.0185185
        k(   28) = (   0.4166667  -0.4166667   1.2500000), wk =   0.0555556

     Dense  grid:    13323 G-vectors     FFT dimensions: (  36,  36,  36)

     Smooth grid:     4645 G-vectors     FFT dimensions: (  24,  24,  24)

     Estimated max dynamical RAM per process >       2.54MB

     Estimated total allocated dynamical RAM >      10.15MB

     Initial potential from superposition of free atoms

     starting charge    7.99866, renormalised to    8.00000
     Starting wfc are    8 randomized atomic wfcs

     total cpu time spent up to now is        0.6 secs

     per-process dynamical memory:     9.5 Mb

     Self-consistent Calculation

     iteration #  1     ecut=    25.00 Ry     beta=0.70
     Davidson diagonalization with overlap
     ethr =  1.00E-02,  avg # of iterations =  2.0

     Threshold (ethr) on eigenvalues was too large:
     Diagonalizing with lowered threshold

     Davidson diagonalization with overlap
     ethr =  6.77E-04,  avg # of iterations =  1.0

     total cpu time spent up to now is        0.9 secs

     total energy              =     -19.19118229 Ry
     Harris-Foulkes estimate   =     -19.20364783 Ry
     estimated scf accuracy    <       0.05370279 Ry

     iteration #  2     ecut=    25.00 Ry     beta=0.70
     Davidson diagonalization with overlap
     ethr =  6.71E-04,  avg # of iterations =  1.0

     total cpu time spent up to now is        1.1 secs

     total energy              =     -19.19297167 Ry
     Harris-Foulkes estimate   =     -19.19313721 Ry
     estimated scf accuracy    <       0.00244251 Ry

     iteration #  3     ecut=    25.00 Ry     beta=0.70
     Davidson diagonalization with overlap
     ethr =  3.05E-05,  avg # of iterations =  2.1

     total cpu time spent up to now is        1.3 secs

     total energy              =     -19.19331137 Ry
     Harris-Foulkes estimate   =     -19.19332446 Ry
     estimated scf accuracy    <       0.00004166 Ry

     iteration #  4     ecut=    25.00 Ry     beta=0.70
     Davidson diagonalization with overlap
     ethr =  5.21E-07,  avg # of iterations =  3.2

     total cpu time spent up to now is        1.5 secs

     total energy              =     -19.19334485 Ry
     Harris-Foulkes estimate   =     -19.19334560 Ry
     estimated scf accuracy    <       0.00000289 Ry

     iteration #  5     ecut=    25.00 Ry     beta=0.70
     Davidson diagonalization with overlap
     ethr =  3.61E-08,  avg # of iterations =  2.0

     total cpu time spent up to now is        1.7 secs

     total energy              =     -19.19334525 Ry
     Harris-Foulkes estimate   =     -19.19334524 Ry
     estimated scf accuracy    <       0.00000001 Ry

     iteration #  6     ecut=    25.00 Ry     beta=0.70
     Davidson diagonalization with overlap
     ethr =  1.74E-10,  avg # of iterations =  3.8

     total cpu time spent up to now is        1.9 secs

     End of self-consistent calculation

          k =-0.0833 0.0833 0.0833 (   573 PWs)   bands (ev):

    -5.7492   5.1214   5.8394   5.8394

          k =-0.2500 0.2500-0.0833 (   572 PWs)   bands (ev):

    -5.2796   3.0551   4.6225   5.6301

          k =-0.4167 0.4167-0.2500 (   586 PWs)   bands (ev):

    -4.2053   0.3303   4.1597   5.0016

          k = 0.4167-0.4167 0.5833 (   583 PWs)   bands (ev):

    -3.5221  -0.7934   4.2225   4.6273

          k = 0.2500-0.2500 0.4167 (   587 PWs)   bands (ev):

    -4.6099   1.1646   4.6884   4.7149

          k = 0.0833-0.0833 0.2500 (   571 PWs)   bands (ev):

    -5.5120   4.0553   5.2045   5.3827

          k =-0.0833 0.4167 0.0833 (   576 PWs)   bands (ev):

    -5.0419   2.8583   4.4662   4.4852

          k =-0.2500 0.5833-0.0833 (   586 PWs)   bands (ev):

    -4.1456   1.0388   3.1704   4.1029

          k = 0.5833-0.2500 0.7500 (   579 PWs)   bands (ev):

    -3.0512  -0.6791   2.5727   3.8804

          k = 0.4167-0.0833 0.5833 (   581 PWs)   bands (ev):

    -3.7583   0.3580   2.5371   4.3579

          k = 0.2500 0.0833 0.4167 (   579 PWs)   bands (ev):

    -4.8200   2.0371   3.8566   5.0134

          k =-0.0833 0.7500 0.0833 (   587 PWs)   bands (ev):

    -3.4441   0.2138   3.1375   3.4700

          k = 0.7500-0.0833 0.9167 (   585 PWs)   bands (ev):

    -2.2680  -1.1088   2.3122   3.0721

          k = 0.5833 0.0833 0.7500 (   582 PWs)   bands (ev):

    -2.6372  -0.7707   1.8353   3.6088

          k = 0.4167 0.2500 0.5833 (   584 PWs)   bands (ev):

    -3.6499  -0.3054   3.4568   4.4533

          k =-0.0833-0.9167 0.0833 (   590 PWs)   bands (ev):

    -2.3565  -1.1159   2.8722   3.2574

          k =-0.2500-0.7500-0.0833 (   583 PWs)   bands (ev):

    -3.2792  -0.0051   2.6258   3.4076

          k =-0.0833-0.5833 0.0833 (   580 PWs)   bands (ev):

    -4.3475   1.5648   3.6727   3.8868

          k =-0.2500 0.2500 0.2500 (   576 PWs)   bands (ev):

    -5.0536   2.0914   5.2336   5.2336

          k =-0.4167 0.4167 0.0833 (   582 PWs)   bands (ev):

    -4.3852   1.1596   3.1344   5.0654

          k = 0.4167-0.4167 0.9167 (   581 PWs)   bands (ev):

    -3.2267  -0.2682   2.0468   4.2920

          k = 0.2500-0.2500 0.7500 (   579 PWs)   bands (ev):

    -3.1745  -0.3468   2.5155   3.8178

          k =-0.2500 0.5833 0.2500 (   585 PWs)   bands (ev):

    -3.9682   0.3650   3.5850   4.1856

          k = 0.5833-0.2500 1.0833 (   579 PWs)   bands (ev):

    -2.9829  -0.3858   2.1463   3.4070

          k = 0.4167-0.0833 0.9167 (   590 PWs)   bands (ev):

    -2.1655  -1.1165   1.9891   2.7517

          k =-0.2500-1.0833 0.2500 (   585 PWs)   bands (ev):

    -2.3734  -1.0194   1.8647   3.6260

          k =-0.4167 0.4167 0.4167 (   589 PWs)   bands (ev):

    -3.8832  -0.3995   4.8487   4.8487

          k = 0.4167-0.4167 1.2500 (   582 PWs)   bands (ev):

    -3.2896  -0.7020   3.0383   4.4165

     highest occupied level (ev):     5.8394

!    total energy              =     -19.19334528 Ry
     Harris-Foulkes estimate   =     -19.19334528 Ry
     estimated scf accuracy    <          1.3E-09 Ry

     The total energy is the sum of the following terms:

     one-electron contribution =       4.95202616 Ry
     hartree contribution      =       1.13379784 Ry
     xc contribution           =      -8.59693394 Ry
     ewald contribution        =     -16.68223533 Ry

     convergence has been achieved in   6 iterations


     Computing stress (Cartesian axis) and pressure

          total   stress  (Ry/bohr**3)                   (kbar)     P=   -0.06
  -0.00000042  -0.00000000  -0.00000000         -0.06     -0.00     -0.00
  -0.00000000  -0.00000042   0.00000000         -0.00     -0.06      0.00
  -0.00000000   0.00000000  -0.00000042         -0.00      0.00     -0.06


     Writing output data file silicon.25.save

     init_run     :      0.34s CPU      0.53s WALL (       1 calls)
     electrons    :      1.22s CPU      1.29s WALL (       1 calls)
     stress       :      0.26s CPU      0.32s WALL (       1 calls)

     Called by init_run:
     wfcinit      :      0.07s CPU      0.07s WALL (       1 calls)
     potinit      :      0.03s CPU      0.03s WALL (       1 calls)

     Called by electrons:
     c_bands      :      0.74s CPU      0.79s WALL (       7 calls)
     sum_band     :      0.28s CPU      0.29s WALL (       7 calls)
     v_of_rho     :      0.09s CPU      0.09s WALL (       7 calls)
     newd         :      0.12s CPU      0.13s WALL (       7 calls)
     mix_rho      :      0.01s CPU      0.01s WALL (       7 calls)

     Called by c_bands:
     init_us_2    :      0.05s CPU      0.05s WALL (     448 calls)
     cegterg      :      0.64s CPU      0.68s WALL (     196 calls)

     Called by sum_band:
     sum_band:bec :      0.00s CPU      0.00s WALL (     196 calls)
     addusdens    :      0.13s CPU      0.13s WALL (       7 calls)

     Called by *egterg:
     h_psi        :      0.55s CPU      0.59s WALL (     650 calls)
     s_psi        :      0.04s CPU      0.05s WALL (     650 calls)
     g_psi        :      0.00s CPU      0.00s WALL (     426 calls)
     cdiaghg      :      0.04s CPU      0.04s WALL (     594 calls)

     Called by h_psi:
     h_psi:pot    :      0.55s CPU      0.59s WALL (     650 calls)
     h_psi:calbec :      0.05s CPU      0.06s WALL (     650 calls)
     vloc_psi     :      0.45s CPU      0.48s WALL (     650 calls)
     add_vuspsi   :      0.05s CPU      0.05s WALL (     650 calls)

     General routines
     calbec       :      0.07s CPU      0.07s WALL (     874 calls)
     fft          :      0.07s CPU      0.07s WALL (     126 calls)
     ffts         :      0.01s CPU      0.01s WALL (      14 calls)
     fftw         :      0.45s CPU      0.48s WALL (    5654 calls)
     interpolate  :      0.02s CPU      0.02s WALL (      14 calls)
     davcio       :      0.00s CPU      0.00s WALL (      28 calls)

     Parallel routines
     fft_scatter  :      0.11s CPU      0.13s WALL (    5794 calls)

     PWSCF        :     2.04s CPU         2.43s WALL


   This run was terminated on:  12: 8: 6  10Nov2017            

=------------------------------------------------------------------------------=
   JOB DONE.
=------------------------------------------------------------------------------=
