
     Program PWSCF v.6.1 (svn rev. 13369) starts on 10Nov2017 at 12: 7:50 

     This program is part of the open-source Quantum ESPRESSO suite
     for quantum simulation of materials; please cite
         "P. Giannozzi et al., J. Phys.:Condens. Matter 21 395502 (2009);
          URL http://www.quantum-espresso.org", 
     in publications or presentations arising from this work. More details at
     http://www.quantum-espresso.org/quote

     Parallel version (MPI), running on     4 processors
     R & G space division:  proc/nbgrp/npool/nimage =       4
     Waiting for input...
     Reading input from standard input
     Message from routine read_cards :
     DEPRECATED: no units specified in ATOMIC_POSITIONS card
     Message from routine read_cards :
     ATOMIC_POSITIONS: units set to alat

     Current dimensions of program PWSCF are:
     Max number of different atomic species (ntypx) = 10
     Max number of k-points (npk) =  40000
     Max angular momentum in pseudopotentials (lmaxx) =  3

     Subspace diagonalization in iterative solution of the eigenvalue problem:
     a serial algorithm will be used


     Parallelization info
     --------------------
     sticks:   dense  smooth     PW     G-vecs:    dense   smooth      PW
     Min          49      27     10                  477      175      45
     Max          50      28     11                  481      176      46
     Sum         199     109     43                 1917      701     181



     bravais-lattice index     =            2
     lattice parameter (alat)  =      10.3330  a.u.
     unit-cell volume          =     275.8159 (a.u.)^3
     number of atoms/cell      =            2
     number of atomic types    =            1
     number of electrons       =         8.00
     number of Kohn-Sham states=            4
     kinetic-energy cutoff     =       7.0000  Ry
     charge density cutoff     =      56.0000  Ry
     convergence threshold     =      1.0E-08
     mixing beta               =       0.7000
     number of iterations used =            8  plain     mixing
     Exchange-correlation      = SLA  PW   PBE  PBE ( 1  4  3  4 0 0)

     celldm(1)=  10.333000  celldm(2)=   0.000000  celldm(3)=   0.000000
     celldm(4)=   0.000000  celldm(5)=   0.000000  celldm(6)=   0.000000

     crystal axes: (cart. coord. in units of alat)
               a(1) = (  -0.500000   0.000000   0.500000 )  
               a(2) = (   0.000000   0.500000   0.500000 )  
               a(3) = (  -0.500000   0.500000   0.000000 )  

     reciprocal axes: (cart. coord. in units 2 pi/alat)
               b(1) = ( -1.000000 -1.000000  1.000000 )  
               b(2) = (  1.000000  1.000000  1.000000 )  
               b(3) = ( -1.000000  1.000000 -1.000000 )  


     PseudoPot. # 1 for Si read from file:
     /home/max/quantum_espresso/qe-6.1/pseudo/si_pbe_v1.uspp.F.UPF.txt
     MD5 check sum: a056efeee980c13900f22a371efd63c1
     Pseudo is Ultrasoft + core correction, Zval =  4.0
     Generated by new atomic code, or converted to UPF format
     Using radial grid of  899 points,  6 beta functions with: 
                l(1) =   0
                l(2) =   0
                l(3) =   1
                l(4) =   1
                l(5) =   2
                l(6) =   2
     Q(r) pseudized with  8 coefficients,  rinner =    0.900   0.900   0.900
                                                       0.900   0.900

     atomic species   valence    mass     pseudopotential
        Si             4.00    28.08600     Si( 1.00)

     24 Sym. Ops. (no inversion) found
          (note: 24 additional sym.ops. were found but ignored
           their fractional translations are incommensurate with FFT grid)


   Cartesian axes

     site n.     atom                  positions (alat units)
         1           Si  tau(   1) = (   0.0000000   0.0000000   0.0000000  )
         2           Si  tau(   2) = (   0.2500000   0.2500000   0.2500000  )

     number of k points=    28
                       cart. coord. in units 2pi/alat
        k(    1) = (  -0.0833333   0.0833333   0.0833333), wk =   0.0185185
        k(    2) = (  -0.2500000   0.2500000  -0.0833333), wk =   0.0555556
        k(    3) = (  -0.4166667   0.4166667  -0.2500000), wk =   0.0555556
        k(    4) = (   0.4166667  -0.4166667   0.5833333), wk =   0.0555556
        k(    5) = (   0.2500000  -0.2500000   0.4166667), wk =   0.0555556
        k(    6) = (   0.0833333  -0.0833333   0.2500000), wk =   0.0555556
        k(    7) = (  -0.0833333   0.4166667   0.0833333), wk =   0.0555556
        k(    8) = (  -0.2500000   0.5833333  -0.0833333), wk =   0.1111111
        k(    9) = (   0.5833333  -0.2500000   0.7500000), wk =   0.1111111
        k(   10) = (   0.4166667  -0.0833333   0.5833333), wk =   0.1111111
        k(   11) = (   0.2500000   0.0833333   0.4166667), wk =   0.1111111
        k(   12) = (  -0.0833333   0.7500000   0.0833333), wk =   0.0555556
        k(   13) = (   0.7500000  -0.0833333   0.9166667), wk =   0.1111111
        k(   14) = (   0.5833333   0.0833333   0.7500000), wk =   0.1111111
        k(   15) = (   0.4166667   0.2500000   0.5833333), wk =   0.1111111
        k(   16) = (  -0.0833333  -0.9166667   0.0833333), wk =   0.0555556
        k(   17) = (  -0.2500000  -0.7500000  -0.0833333), wk =   0.1111111
        k(   18) = (  -0.0833333  -0.5833333   0.0833333), wk =   0.0555556
        k(   19) = (  -0.2500000   0.2500000   0.2500000), wk =   0.0185185
        k(   20) = (  -0.4166667   0.4166667   0.0833333), wk =   0.0555556
        k(   21) = (   0.4166667  -0.4166667   0.9166667), wk =   0.0555556
        k(   22) = (   0.2500000  -0.2500000   0.7500000), wk =   0.0555556
        k(   23) = (  -0.2500000   0.5833333   0.2500000), wk =   0.0555556
        k(   24) = (   0.5833333  -0.2500000   1.0833333), wk =   0.1111111
        k(   25) = (   0.4166667  -0.0833333   0.9166667), wk =   0.1111111
        k(   26) = (  -0.2500000  -1.0833333   0.2500000), wk =   0.0555556
        k(   27) = (  -0.4166667   0.4166667   0.4166667), wk =   0.0185185
        k(   28) = (   0.4166667  -0.4166667   1.2500000), wk =   0.0555556

     Dense  grid:     1917 G-vectors     FFT dimensions: (  18,  18,  18)

     Smooth grid:      701 G-vectors     FFT dimensions: (  15,  15,  15)

     Estimated max dynamical RAM per process >       0.37MB

     Estimated total allocated dynamical RAM >       1.48MB

     Check: negative/imaginary core charge=   -0.000026    0.000000

     Initial potential from superposition of free atoms

     starting charge    7.99866, renormalised to    8.00000
     Starting wfc are    8 randomized atomic wfcs

     total cpu time spent up to now is        0.2 secs

     per-process dynamical memory:     6.4 Mb

     Self-consistent Calculation

     iteration #  1     ecut=     7.00 Ry     beta=0.70
     Davidson diagonalization with overlap
     ethr =  1.00E-02,  avg # of iterations =  2.0

     Threshold (ethr) on eigenvalues was too large:
     Diagonalizing with lowered threshold

     Davidson diagonalization with overlap
     ethr =  6.77E-04,  avg # of iterations =  1.0

     negative rho (up, down):  2.935E-05 0.000E+00

     total cpu time spent up to now is        0.3 secs

     total energy              =     -19.12733431 Ry
     Harris-Foulkes estimate   =     -19.13426843 Ry
     estimated scf accuracy    <       0.05462548 Ry

     iteration #  2     ecut=     7.00 Ry     beta=0.70
     Davidson diagonalization with overlap
     ethr =  6.83E-04,  avg # of iterations =  1.0

     negative rho (up, down):  6.176E-05 0.000E+00

     total cpu time spent up to now is        0.3 secs

     total energy              =     -19.12855466 Ry
     Harris-Foulkes estimate   =     -19.12865890 Ry
     estimated scf accuracy    <       0.00286646 Ry

     iteration #  3     ecut=     7.00 Ry     beta=0.70
     Davidson diagonalization with overlap
     ethr =  3.58E-05,  avg # of iterations =  1.8

     negative rho (up, down):  6.203E-05 0.000E+00

     total cpu time spent up to now is        0.4 secs

     total energy              =     -19.12878113 Ry
     Harris-Foulkes estimate   =     -19.12879498 Ry
     estimated scf accuracy    <       0.00004024 Ry

     iteration #  4     ecut=     7.00 Ry     beta=0.70
     Davidson diagonalization with overlap
     ethr =  5.03E-07,  avg # of iterations =  2.5

     negative rho (up, down):  6.333E-05 0.000E+00

     total cpu time spent up to now is        0.4 secs

     total energy              =     -19.12879762 Ry
     Harris-Foulkes estimate   =     -19.12879850 Ry
     estimated scf accuracy    <       0.00000270 Ry

     iteration #  5     ecut=     7.00 Ry     beta=0.70
     Davidson diagonalization with overlap
     ethr =  3.37E-08,  avg # of iterations =  2.0

     negative rho (up, down):  6.327E-05 0.000E+00

     total cpu time spent up to now is        0.4 secs

     total energy              =     -19.12879809 Ry
     Harris-Foulkes estimate   =     -19.12879812 Ry
     estimated scf accuracy    <       0.00000009 Ry

     iteration #  6     ecut=     7.00 Ry     beta=0.70
     Davidson diagonalization with overlap
     ethr =  1.13E-09,  avg # of iterations =  2.4

     negative rho (up, down):  6.329E-05 0.000E+00

     total cpu time spent up to now is        0.5 secs

     End of self-consistent calculation

          k =-0.0833 0.0833 0.0833 (    77 PWs)   bands (ev):

    -5.5786   5.2428   5.9054   5.9054

          k =-0.2500 0.2500-0.0833 (    83 PWs)   bands (ev):

    -5.1036   3.1892   4.6744   5.6810

          k =-0.4167 0.4167-0.2500 (    85 PWs)   bands (ev):

    -4.0161   0.4503   4.2033   5.0187

          k = 0.4167-0.4167 0.5833 (    83 PWs)   bands (ev):

    -3.3123  -0.6922   4.2750   4.6423

          k = 0.2500-0.2500 0.4167 (    84 PWs)   bands (ev):

    -4.4280   1.2915   4.7062   4.7706

          k = 0.0833-0.0833 0.2500 (    83 PWs)   bands (ev):

    -5.3413   4.1944   5.2392   5.4552

          k =-0.0833 0.4167 0.0833 (    81 PWs)   bands (ev):

    -4.8621   3.0309   4.5069   4.5245

          k =-0.2500 0.5833-0.0833 (    86 PWs)   bands (ev):

    -3.9657   1.1863   3.2090   4.1238

          k = 0.5833-0.2500 0.7500 (    87 PWs)   bands (ev):

    -2.8610  -0.5589   2.6264   3.8947

          k = 0.4167-0.0833 0.5833 (    88 PWs)   bands (ev):

    -3.5819   0.4897   2.5823   4.3729

          k = 0.2500 0.0833 0.4167 (    84 PWs)   bands (ev):

    -4.6392   2.1794   3.9005   5.0470

          k =-0.0833 0.7500 0.0833 (    86 PWs)   bands (ev):

    -3.2712   0.3865   3.1572   3.4691

          k = 0.7500-0.0833 0.9167 (    89 PWs)   bands (ev):

    -2.1006  -0.9419   2.3349   3.0862

          k = 0.5833 0.0833 0.7500 (    89 PWs)   bands (ev):

    -2.4531  -0.6328   1.8692   3.6238

          k = 0.4167 0.2500 0.5833 (    85 PWs)   bands (ev):

    -3.4584  -0.1906   3.5159   4.4704

          k =-0.0833-0.9167 0.0833 (    90 PWs)   bands (ev):

    -2.1935  -0.9514   2.8855   3.2540

          k =-0.2500-0.7500-0.0833 (    84 PWs)   bands (ev):

    -3.0948   0.1641   2.6609   3.4243

          k =-0.0833-0.5833 0.0833 (    83 PWs)   bands (ev):

    -4.1639   1.7402   3.7061   3.8975

          k =-0.2500 0.2500 0.2500 (    83 PWs)   bands (ev):

    -4.8787   2.2288   5.2629   5.2629

          k =-0.4167 0.4167 0.0833 (    83 PWs)   bands (ev):

    -4.1938   1.2962   3.1889   5.0819

          k = 0.4167-0.4167 0.9167 (    87 PWs)   bands (ev):

    -3.0434  -0.1318   2.0920   4.2970

          k = 0.2500-0.2500 0.7500 (    89 PWs)   bands (ev):

    -3.0046  -0.2063   2.5598   3.8192

          k =-0.2500 0.5833 0.2500 (    85 PWs)   bands (ev):

    -3.7856   0.4973   3.6446   4.1975

          k = 0.5833-0.2500 1.0833 (    88 PWs)   bands (ev):

    -2.8008  -0.2407   2.1826   3.4274

          k = 0.4167-0.0833 0.9167 (    90 PWs)   bands (ev):

    -1.9817  -0.9664   2.0143   2.7735

          k =-0.2500-1.0833 0.2500 (    90 PWs)   bands (ev):

    -2.1892  -0.8744   1.8914   3.6272

          k =-0.4167 0.4167 0.4167 (    89 PWs)   bands (ev):

    -3.6883  -0.2993   4.8547   4.8547

          k = 0.4167-0.4167 1.2500 (    88 PWs)   bands (ev):

    -3.1051  -0.5946   3.0980   4.4218

     highest occupied level (ev):     5.9054

!    total energy              =     -19.12879811 Ry
     Harris-Foulkes estimate   =     -19.12879811 Ry
     estimated scf accuracy    <          2.0E-10 Ry

     The total energy is the sum of the following terms:

     one-electron contribution =       5.04924479 Ry
     hartree contribution      =       1.12767762 Ry
     xc contribution           =      -8.62348520 Ry
     ewald contribution        =     -16.68223532 Ry

     convergence has been achieved in   6 iterations


     Computing stress (Cartesian axis) and pressure


     negative rho (up, down):  6.329E-05 0.000E+00
          total   stress  (Ry/bohr**3)                   (kbar)     P=  -24.88
  -0.00016911   0.00000000   0.00000000        -24.88      0.00      0.00
   0.00000000  -0.00016911   0.00000000          0.00    -24.88      0.00
   0.00000000   0.00000000  -0.00016911          0.00      0.00    -24.88


     Writing output data file silicon.7.save

     init_run     :      0.12s CPU      0.13s WALL (       1 calls)
     electrons    :      0.24s CPU      0.28s WALL (       1 calls)
     stress       :      0.04s CPU      0.04s WALL (       1 calls)

     Called by init_run:
     wfcinit      :      0.02s CPU      0.02s WALL (       1 calls)
     potinit      :      0.00s CPU      0.00s WALL (       1 calls)

     Called by electrons:
     c_bands      :      0.15s CPU      0.19s WALL (       7 calls)
     sum_band     :      0.05s CPU      0.05s WALL (       7 calls)
     v_of_rho     :      0.01s CPU      0.01s WALL (       7 calls)
     newd         :      0.02s CPU      0.02s WALL (       7 calls)
     mix_rho      :      0.00s CPU      0.00s WALL (       7 calls)

     Called by c_bands:
     init_us_2    :      0.01s CPU      0.01s WALL (     448 calls)
     cegterg      :      0.14s CPU      0.16s WALL (     196 calls)

     Called by sum_band:
     sum_band:bec :      0.00s CPU      0.00s WALL (     196 calls)
     addusdens    :      0.02s CPU      0.02s WALL (       7 calls)

     Called by *egterg:
     h_psi        :      0.10s CPU      0.11s WALL (     579 calls)
     s_psi        :      0.01s CPU      0.01s WALL (     579 calls)
     g_psi        :      0.00s CPU      0.00s WALL (     355 calls)
     cdiaghg      :      0.03s CPU      0.03s WALL (     523 calls)

     Called by h_psi:
     h_psi:pot    :      0.10s CPU      0.11s WALL (     579 calls)
     h_psi:calbec :      0.01s CPU      0.01s WALL (     579 calls)
     vloc_psi     :      0.07s CPU      0.09s WALL (     579 calls)
     add_vuspsi   :      0.01s CPU      0.01s WALL (     579 calls)

     General routines
     calbec       :      0.02s CPU      0.02s WALL (     803 calls)
     fft          :      0.02s CPU      0.02s WALL (     126 calls)
     ffts         :      0.00s CPU      0.00s WALL (      14 calls)
     fftw         :      0.08s CPU      0.09s WALL (    5298 calls)
     interpolate  :      0.00s CPU      0.00s WALL (      14 calls)
     davcio       :      0.00s CPU      0.00s WALL (      28 calls)

     Parallel routines
     fft_scatter  :      0.04s CPU      0.04s WALL (    5438 calls)

     PWSCF        :     0.60s CPU         0.66s WALL


   This run was terminated on:  12: 7:51  10Nov2017            

=------------------------------------------------------------------------------=
   JOB DONE.
=------------------------------------------------------------------------------=
