
     Program PHONON v.6.1 (svn rev. 13369) starts on 10Nov2017 at 15:30:44 

     This program is part of the open-source Quantum ESPRESSO suite
     for quantum simulation of materials; please cite
         "P. Giannozzi et al., J. Phys.:Condens. Matter 21 395502 (2009);
          URL http://www.quantum-espresso.org", 
     in publications or presentations arising from this work. More details at
     http://www.quantum-espresso.org/quote

     Parallel version (MPI), running on     4 processors
     R & G space division:  proc/nbgrp/npool/nimage =       4

     Reading data from directory:
     ./silicon.10.376.save

   Info: using nr1, nr2, nr3 values from input

   Info: using nr1, nr2, nr3 values from input

     IMPORTANT: XC functional enforced from input :
     Exchange-correlation      = SLA  PW   PBE  PBE ( 1  4  3  4 0 0)
     Any further DFT definition will be discarded
     Please, verify this is what you really want


     Parallelization info
     --------------------
     sticks:   dense  smooth     PW     G-vecs:    dense   smooth      PW
     Min         222     109     37                 4369     1545     284
     Max         223     110     38                 4370     1546     285
     Sum         889     439    151                17477     6183    1139



     Dynamical matrices for ( 4, 4, 4)  uniform grid of q-points
     (   8q-points):
       N         xq(1)         xq(2)         xq(3) 
       1   0.000000000   0.000000000   0.000000000
       2  -0.250000000   0.250000000  -0.250000000
       3   0.500000000  -0.500000000   0.500000000
       4   0.000000000   0.500000000   0.000000000
       5   0.750000000  -0.250000000   0.750000000
       6   0.500000000   0.000000000   0.500000000
       7   0.000000000  -1.000000000   0.000000000
       8  -0.500000000  -1.000000000   0.000000000

     Calculation of q =    0.0000000   0.0000000   0.0000000

                                                                                

     bravais-lattice index     =            2
     lattice parameter (alat)  =      10.3760  a.u.
     unit-cell volume          =     279.2736 (a.u.)^3
     number of atoms/cell      =            2
     number of atomic types    =            1
     kinetic-energy cut-off    =      30.0000  Ry
     charge density cut-off    =     240.0000  Ry
     convergence threshold     =      1.0E-12
     beta                      =       0.7000
     number of iterations used =            4
     Exchange-correlation      = SLA  PW   PBE  PBE ( 1  4  3  4 0 0)


     celldm(1)=   10.37600  celldm(2)=    0.00000  celldm(3)=    0.00000
     celldm(4)=    0.00000  celldm(5)=    0.00000  celldm(6)=    0.00000

     crystal axes: (cart. coord. in units of alat)
               a(1) = ( -0.5000  0.0000  0.5000 )  
               a(2) = (  0.0000  0.5000  0.5000 )  
               a(3) = ( -0.5000  0.5000  0.0000 )  

     reciprocal axes: (cart. coord. in units 2 pi/alat)
               b(1) = ( -1.0000 -1.0000  1.0000 )  
               b(2) = (  1.0000  1.0000  1.0000 )  
               b(3) = ( -1.0000  1.0000 -1.0000 )  


     Atoms inside the unit cell: 

     Cartesian axes

     site n.  atom      mass           positions (alat units)
        1     Si  28.0860   tau(    1) = (    0.00000    0.00000    0.00000  )
        2     Si  28.0860   tau(    2) = (    0.25000    0.25000    0.25000  )

     Computing dynamical matrix for 
                    q = (   0.0000000   0.0000000   0.0000000 )

     49 Sym.Ops. (with q -> -q+G )


     G cutoff =  654.5027  (   4369 G-vectors)     FFT grid: ( 40, 40, 40)
     G cutoff =  327.2513  (   1546 G-vectors)  smooth grid: ( 25, 25, 25)
     number of k points=    10

     PseudoPot. # 1 for Si read from file:
     /home/s1333534/quantum_espresso/qe-6.1/pseudo/si_pbe_v1.uspp.F.UPF.txt
     MD5 check sum: a056efeee980c13900f22a371efd63c1
     Pseudo is Ultrasoft + core correction, Zval =  4.0
     Generated by new atomic code, or converted to UPF format
     Using radial grid of  899 points,  6 beta functions with: 
                l(1) =   0
                l(2) =   0
                l(3) =   1
                l(4) =   1
                l(5) =   2
                l(6) =   2
     Q(r) pseudized with  8 coefficients,  rinner =    0.900   0.900   0.900
                                                       0.900   0.900

     Mode symmetry, O_h (m-3m)  point group:


     Electric field:
     Dielectric constant
     Born effective charges in two ways 


     Atomic displacements:
     There are   2 irreducible representations

     Representation     1      3 modes -T_2g G_25' G_5+  To be done

     Representation     2      3 modes -T_1u G_15  G_4-  To be done



     Alpha used in Ewald sum =   2.5000
     PHONON       :     0.95s CPU         1.32s WALL


     Electric Fields Calculation

      iter #   1 total cpu time :     2.5 secs   av.it.:   5.7
      thresh= 1.000E-02 alpha_mix =  0.700 |ddv_scf|^2 =  9.653E-08

      iter #   2 total cpu time :     3.8 secs   av.it.:  11.9
      thresh= 3.107E-05 alpha_mix =  0.700 |ddv_scf|^2 =  5.792E-09

      iter #   3 total cpu time :     4.7 secs   av.it.:  11.7
      thresh= 7.611E-06 alpha_mix =  0.700 |ddv_scf|^2 =  3.931E-10

      iter #   4 total cpu time :     5.4 secs   av.it.:  10.6
      thresh= 1.983E-06 alpha_mix =  0.700 |ddv_scf|^2 =  2.663E-12

      iter #   5 total cpu time :     6.1 secs   av.it.:  11.2
      thresh= 1.632E-07 alpha_mix =  0.700 |ddv_scf|^2 =  2.675E-15

     End of electric fields calculation

          Dielectric constant in cartesian axis 

          (      14.057243032      -0.000000000       0.000000000 )
          (      -0.000000000      14.057243032      -0.000000000 )
          (       0.000000000       0.000000000      14.057243032 )

          Effective charges (d Force / dE) in cartesian axis

           atom      1   Si 
      Ex  (       -0.03770        0.00000       -0.00000 )
      Ey  (       -0.00000       -0.03770       -0.00000 )
      Ez  (        0.00000       -0.00000       -0.03770 )
           atom      2   Si 
      Ex  (       -0.03770        0.00000        0.00000 )
      Ey  (        0.00000       -0.03770        0.00000 )
      Ez  (        0.00000       -0.00000       -0.03770 )


     Representation #  1 modes #   1  2  3

     Self-consistent Calculation

      iter #   1 total cpu time :     7.5 secs   av.it.:   5.1
      thresh= 1.000E-02 alpha_mix =  0.700 |ddv_scf|^2 =  1.711E-08

      iter #   2 total cpu time :     8.5 secs   av.it.:  11.9
      thresh= 1.308E-05 alpha_mix =  0.700 |ddv_scf|^2 =  6.984E-10

      iter #   3 total cpu time :     9.3 secs   av.it.:  11.3
      thresh= 2.643E-06 alpha_mix =  0.700 |ddv_scf|^2 =  4.748E-11

      iter #   4 total cpu time :    10.0 secs   av.it.:  10.4
      thresh= 6.891E-07 alpha_mix =  0.700 |ddv_scf|^2 =  1.184E-13

     End of self-consistent calculation

     Convergence has been achieved 


     Representation #  2 modes #   4  5  6

     Self-consistent Calculation

      iter #   1 total cpu time :    11.0 secs   av.it.:   5.2
      thresh= 1.000E-02 alpha_mix =  0.700 |ddv_scf|^2 =  1.348E-08

      iter #   2 total cpu time :    11.8 secs   av.it.:  11.8
      thresh= 1.161E-05 alpha_mix =  0.700 |ddv_scf|^2 =  7.905E-10

      iter #   3 total cpu time :    12.6 secs   av.it.:  11.4
      thresh= 2.812E-06 alpha_mix =  0.700 |ddv_scf|^2 =  4.918E-11

      iter #   4 total cpu time :    13.4 secs   av.it.:  11.5
      thresh= 7.013E-07 alpha_mix =  0.700 |ddv_scf|^2 =  1.938E-13

     End of self-consistent calculation

     Convergence has been achieved 

     Number of q in the star =    1
     List of q in the star:
          1   0.000000000   0.000000000   0.000000000

          Dielectric constant in cartesian axis 

          (      14.057243032      -0.000000000       0.000000000 )
          (      -0.000000000      14.057243032      -0.000000000 )
          (       0.000000000       0.000000000      14.057243032 )

          Effective charges (d Force / dE) in cartesian axis

           atom      1   Si 
      Ex  (       -0.03770        0.00000       -0.00000 )
      Ey  (       -0.00000       -0.03770       -0.00000 )
      Ez  (        0.00000       -0.00000       -0.03770 )
           atom      2   Si 
      Ex  (       -0.03770        0.00000        0.00000 )
      Ey  (        0.00000       -0.03770        0.00000 )
      Ez  (        0.00000       -0.00000       -0.03770 )

          Effective charges (d P / du) in cartesian axis 

           atom      1   Si 
      Px  (       -0.07303        0.00000       -0.00000 )
      Py  (       -0.00000       -0.07303       -0.00000 )
      Pz  (        0.00000        0.00000       -0.07303 )
           atom      2   Si 
      Px  (       -0.07303        0.00000       -0.00000 )
      Py  (        0.00000       -0.07303       -0.00000 )
      Pz  (       -0.00000       -0.00000       -0.07303 )

     Diagonalizing the dynamical matrix

     q = (    0.000000000   0.000000000   0.000000000 ) 

 **************************************************************************
     freq (    1) =      -0.475022 [THz] =     -15.845031 [cm-1]
     freq (    2) =      -0.475022 [THz] =     -15.845031 [cm-1]
     freq (    3) =      -0.475022 [THz] =     -15.845031 [cm-1]
     freq (    4) =      14.886291 [THz] =     496.553224 [cm-1]
     freq (    5) =      14.886291 [THz] =     496.553224 [cm-1]
     freq (    6) =      14.886291 [THz] =     496.553224 [cm-1]
 **************************************************************************

     Mode symmetry, O_h (m-3m)  point group:

     freq (  1 -  3) =        -15.8  [cm-1]   --> T_1u G_15  G_4- I  
     freq (  4 -  6) =        496.6  [cm-1]   --> T_2g G_25' G_5+ R  

     Calculation of q =   -0.2500000   0.2500000  -0.2500000

   Info: using nr1, nr2, nr3 values from input

   Info: using nr1, nr2, nr3 values from input

     Parallelization info
     --------------------
     sticks:   dense  smooth     PW     G-vecs:    dense   smooth      PW
     Min         222     109     37                 4369     1545     309
     Max         223     110     38                 4370     1546     312
     Sum         889     439    151                17477     6183    1243



     bravais-lattice index     =            2
     lattice parameter (alat)  =      10.3760  a.u.
     unit-cell volume          =     279.2736 (a.u.)^3
     number of atoms/cell      =            2
     number of atomic types    =            1
     number of electrons       =         8.00
     number of Kohn-Sham states=            4
     kinetic-energy cutoff     =      30.0000  Ry
     charge density cutoff     =     240.0000  Ry
     Exchange-correlation      = SLA  PW   PBE  PBE ( 1  4  3  4 0 0)

     celldm(1)=  10.376000  celldm(2)=   0.000000  celldm(3)=   0.000000
     celldm(4)=   0.000000  celldm(5)=   0.000000  celldm(6)=   0.000000

     crystal axes: (cart. coord. in units of alat)
               a(1) = (  -0.500000   0.000000   0.500000 )  
               a(2) = (   0.000000   0.500000   0.500000 )  
               a(3) = (  -0.500000   0.500000   0.000000 )  

     reciprocal axes: (cart. coord. in units 2 pi/alat)
               b(1) = ( -1.000000 -1.000000  1.000000 )  
               b(2) = (  1.000000  1.000000  1.000000 )  
               b(3) = ( -1.000000  1.000000 -1.000000 )  


     PseudoPot. # 1 for Si read from file:
     /home/s1333534/quantum_espresso/qe-6.1/pseudo/si_pbe_v1.uspp.F.UPF.txt
     MD5 check sum: a056efeee980c13900f22a371efd63c1
     Pseudo is Ultrasoft + core correction, Zval =  4.0
     Generated by new atomic code, or converted to UPF format
     Using radial grid of  899 points,  6 beta functions with: 
                l(1) =   0
                l(2) =   0
                l(3) =   1
                l(4) =   1
                l(5) =   2
                l(6) =   2
     Q(r) pseudized with  8 coefficients,  rinner =    0.900   0.900   0.900
                                                       0.900   0.900

     atomic species   valence    mass     pseudopotential
        Si             4.00    28.08600     Si( 1.00)

     48 Sym. Ops., with inversion, found



   Cartesian axes

     site n.     atom                  positions (alat units)
         1           Si  tau(   1) = (   0.0000000   0.0000000   0.0000000  )
         2           Si  tau(   2) = (   0.2500000   0.2500000   0.2500000  )

     number of k points=   120

     Number of k-points >= 100: set verbosity='high' to print them.

     Dense  grid:    17477 G-vectors     FFT dimensions: (  40,  40,  40)

     Smooth grid:     6183 G-vectors     FFT dimensions: (  25,  25,  25)

     Estimated max dynamical RAM per process >       1.79MB

     Estimated total allocated dynamical RAM >       7.17MB

     The potential is recalculated from file :
     ./_ph0/silicon.10.376.save/charge-density.dat

     Starting wfc are    8 atomic wfcs

     Band Structure Calculation
     Davidson diagonalization with overlap

     ethr =  1.25E-10,  avg # of iterations = 12.2

     total cpu time spent up to now is        1.4 secs

     End of band structure calculation

     Number of k-points >= 100: set verbosity='high' to print the bands.

     highest occupied level (ev):     5.5745

     Writing output data file silicon.10.376.save

                                                                                

     bravais-lattice index     =            2
     lattice parameter (alat)  =      10.3760  a.u.
     unit-cell volume          =     279.2736 (a.u.)^3
     number of atoms/cell      =            2
     number of atomic types    =            1
     kinetic-energy cut-off    =      30.0000  Ry
     charge density cut-off    =     240.0000  Ry
     convergence threshold     =      1.0E-12
     beta                      =       0.7000
     number of iterations used =            4
     Exchange-correlation      = SLA  PW   PBE  PBE ( 1  4  3  4 0 0)


     celldm(1)=   10.37600  celldm(2)=    0.00000  celldm(3)=    0.00000
     celldm(4)=    0.00000  celldm(5)=    0.00000  celldm(6)=    0.00000

     crystal axes: (cart. coord. in units of alat)
               a(1) = ( -0.5000  0.0000  0.5000 )  
               a(2) = (  0.0000  0.5000  0.5000 )  
               a(3) = ( -0.5000  0.5000  0.0000 )  

     reciprocal axes: (cart. coord. in units 2 pi/alat)
               b(1) = ( -1.0000 -1.0000  1.0000 )  
               b(2) = (  1.0000  1.0000  1.0000 )  
               b(3) = ( -1.0000  1.0000 -1.0000 )  


     Atoms inside the unit cell: 

     Cartesian axes

     site n.  atom      mass           positions (alat units)
        1     Si  28.0860   tau(    1) = (    0.00000    0.00000    0.00000  )
        2     Si  28.0860   tau(    2) = (    0.25000    0.25000    0.25000  )

     Computing dynamical matrix for 
                    q = (  -0.2500000   0.2500000  -0.2500000 )

      6 Sym.Ops. (no q -> -q+G )


     G cutoff =  654.5027  (   4369 G-vectors)     FFT grid: ( 40, 40, 40)
     G cutoff =  327.2513  (   1546 G-vectors)  smooth grid: ( 25, 25, 25)
     number of k points=   120

     PseudoPot. # 1 for Si read from file:
     /home/s1333534/quantum_espresso/qe-6.1/pseudo/si_pbe_v1.uspp.F.UPF.txt
     MD5 check sum: a056efeee980c13900f22a371efd63c1
     Pseudo is Ultrasoft + core correction, Zval =  4.0
     Generated by new atomic code, or converted to UPF format
     Using radial grid of  899 points,  6 beta functions with: 
                l(1) =   0
                l(2) =   0
                l(3) =   1
                l(4) =   1
                l(5) =   2
                l(6) =   2
     Q(r) pseudized with  8 coefficients,  rinner =    0.900   0.900   0.900
                                                       0.900   0.900

     Mode symmetry, C_3v (3m)   point group:


     Atomic displacements:
     There are   4 irreducible representations

     Representation     1      1 modes -A_1  L_1  To be done

     Representation     2      1 modes -A_1  L_1  To be done

     Representation     3      2 modes -E    L_3  To be done

     Representation     4      2 modes -E    L_3  To be done



     Alpha used in Ewald sum =   2.5000
     PHONON       :    11.98s CPU        17.01s WALL



     Representation #  1 mode #   1

     Self-consistent Calculation

      iter #   1 total cpu time :    17.5 secs   av.it.:   5.9
      thresh= 1.000E-02 alpha_mix =  0.700 |ddv_scf|^2 =  3.071E-04

      iter #   2 total cpu time :    18.2 secs   av.it.:   9.2
      thresh= 1.752E-03 alpha_mix =  0.700 |ddv_scf|^2 =  4.703E-03

      iter #   3 total cpu time :    18.7 secs   av.it.:   7.1
      thresh= 6.858E-03 alpha_mix =  0.700 |ddv_scf|^2 =  1.951E-07

      iter #   4 total cpu time :    19.4 secs   av.it.:   9.8
      thresh= 4.418E-05 alpha_mix =  0.700 |ddv_scf|^2 =  1.314E-08

      iter #   5 total cpu time :    20.0 secs   av.it.:   9.8
      thresh= 1.146E-05 alpha_mix =  0.700 |ddv_scf|^2 =  2.257E-10

      iter #   6 total cpu time :    20.7 secs   av.it.:   9.9
      thresh= 1.502E-06 alpha_mix =  0.700 |ddv_scf|^2 =  3.888E-10

      iter #   7 total cpu time :    21.4 secs   av.it.:   8.0
      thresh= 1.972E-06 alpha_mix =  0.700 |ddv_scf|^2 =  5.664E-11

      iter #   8 total cpu time :    22.0 secs   av.it.:   9.2
      thresh= 7.526E-07 alpha_mix =  0.700 |ddv_scf|^2 =  4.026E-13

     End of self-consistent calculation

     Convergence has been achieved 


     Representation #  2 mode #   2

     Self-consistent Calculation

      iter #   1 total cpu time :    22.7 secs   av.it.:   5.9
      thresh= 1.000E-02 alpha_mix =  0.700 |ddv_scf|^2 =  3.071E-04

      iter #   2 total cpu time :    23.4 secs   av.it.:   9.2
      thresh= 1.752E-03 alpha_mix =  0.700 |ddv_scf|^2 =  4.703E-03

      iter #   3 total cpu time :    23.9 secs   av.it.:   7.1
      thresh= 6.858E-03 alpha_mix =  0.700 |ddv_scf|^2 =  1.951E-07

      iter #   4 total cpu time :    24.6 secs   av.it.:   9.8
      thresh= 4.418E-05 alpha_mix =  0.700 |ddv_scf|^2 =  1.314E-08

      iter #   5 total cpu time :    25.3 secs   av.it.:   9.8
      thresh= 1.146E-05 alpha_mix =  0.700 |ddv_scf|^2 =  2.257E-10

      iter #   6 total cpu time :    25.9 secs   av.it.:   9.9
      thresh= 1.502E-06 alpha_mix =  0.700 |ddv_scf|^2 =  3.888E-10

      iter #   7 total cpu time :    26.5 secs   av.it.:   8.0
      thresh= 1.972E-06 alpha_mix =  0.700 |ddv_scf|^2 =  5.664E-11

      iter #   8 total cpu time :    27.1 secs   av.it.:   9.2
      thresh= 7.526E-07 alpha_mix =  0.700 |ddv_scf|^2 =  4.026E-13

     End of self-consistent calculation

     Convergence has been achieved 


     Representation #  3 modes #   3  4

     Self-consistent Calculation

      iter #   1 total cpu time :    28.0 secs   av.it.:   5.2
      thresh= 1.000E-02 alpha_mix =  0.700 |ddv_scf|^2 =  4.804E-08

      iter #   2 total cpu time :    29.4 secs   av.it.:  11.7
      thresh= 2.192E-05 alpha_mix =  0.700 |ddv_scf|^2 =  3.087E-09

      iter #   3 total cpu time :    30.7 secs   av.it.:  11.2
      thresh= 5.556E-06 alpha_mix =  0.700 |ddv_scf|^2 =  1.628E-10

      iter #   4 total cpu time :    32.0 secs   av.it.:  11.1
      thresh= 1.276E-06 alpha_mix =  0.700 |ddv_scf|^2 =  6.333E-13

     End of self-consistent calculation

     Convergence has been achieved 


     Representation #  4 modes #   5  6

     Self-consistent Calculation

      iter #   1 total cpu time :    33.0 secs   av.it.:   5.2
      thresh= 1.000E-02 alpha_mix =  0.700 |ddv_scf|^2 =  4.805E-08

      iter #   2 total cpu time :    34.5 secs   av.it.:  11.7
      thresh= 2.192E-05 alpha_mix =  0.700 |ddv_scf|^2 =  3.086E-09

      iter #   3 total cpu time :    35.9 secs   av.it.:  11.4
      thresh= 5.555E-06 alpha_mix =  0.700 |ddv_scf|^2 =  1.628E-10

      iter #   4 total cpu time :    37.1 secs   av.it.:  11.2
      thresh= 1.276E-06 alpha_mix =  0.700 |ddv_scf|^2 =  6.372E-13

     End of self-consistent calculation

     Convergence has been achieved 

     Number of q in the star =    8
     List of q in the star:
          1  -0.250000000   0.250000000  -0.250000000
          2   0.250000000  -0.250000000  -0.250000000
          3   0.250000000  -0.250000000   0.250000000
          4   0.250000000   0.250000000   0.250000000
          5  -0.250000000  -0.250000000  -0.250000000
          6  -0.250000000  -0.250000000   0.250000000
          7  -0.250000000   0.250000000   0.250000000
          8   0.250000000   0.250000000  -0.250000000

     Diagonalizing the dynamical matrix

     q = (   -0.250000000   0.250000000  -0.250000000 ) 

 **************************************************************************
     freq (    1) =       2.807837 [THz] =      93.659358 [cm-1]
     freq (    2) =       2.807837 [THz] =      93.659358 [cm-1]
     freq (    3) =       6.644753 [THz] =     221.645115 [cm-1]
     freq (    4) =      14.043195 [THz] =     468.430550 [cm-1]
     freq (    5) =      14.292834 [THz] =     476.757638 [cm-1]
     freq (    6) =      14.292834 [THz] =     476.757638 [cm-1]
 **************************************************************************

     Mode symmetry, C_3v (3m)   point group:

     freq (  1 -  2) =         93.7  [cm-1]   --> E    L_3           
     freq (  3 -  3) =        221.6  [cm-1]   --> A_1  L_1           
     freq (  4 -  4) =        468.4  [cm-1]   --> A_1  L_1           
     freq (  5 -  6) =        476.8  [cm-1]   --> E    L_3           

     Calculation of q =    0.5000000  -0.5000000   0.5000000

   Info: using nr1, nr2, nr3 values from input

   Info: using nr1, nr2, nr3 values from input

     Parallelization info
     --------------------
     sticks:   dense  smooth     PW     G-vecs:    dense   smooth      PW
     Min         222     109     40                 4369     1545     351
     Max         223     110     41                 4370     1546     354
     Sum         889     439    163                17477     6183    1411



     bravais-lattice index     =            2
     lattice parameter (alat)  =      10.3760  a.u.
     unit-cell volume          =     279.2736 (a.u.)^3
     number of atoms/cell      =            2
     number of atomic types    =            1
     number of electrons       =         8.00
     number of Kohn-Sham states=            4
     kinetic-energy cutoff     =      30.0000  Ry
     charge density cutoff     =     240.0000  Ry
     Exchange-correlation      = SLA  PW   PBE  PBE ( 1  4  3  4 0 0)

     celldm(1)=  10.376000  celldm(2)=   0.000000  celldm(3)=   0.000000
     celldm(4)=   0.000000  celldm(5)=   0.000000  celldm(6)=   0.000000

     crystal axes: (cart. coord. in units of alat)
               a(1) = (  -0.500000   0.000000   0.500000 )  
               a(2) = (   0.000000   0.500000   0.500000 )  
               a(3) = (  -0.500000   0.500000   0.000000 )  

     reciprocal axes: (cart. coord. in units 2 pi/alat)
               b(1) = ( -1.000000 -1.000000  1.000000 )  
               b(2) = (  1.000000  1.000000  1.000000 )  
               b(3) = ( -1.000000  1.000000 -1.000000 )  


     PseudoPot. # 1 for Si read from file:
     /home/s1333534/quantum_espresso/qe-6.1/pseudo/si_pbe_v1.uspp.F.UPF.txt
     MD5 check sum: a056efeee980c13900f22a371efd63c1
     Pseudo is Ultrasoft + core correction, Zval =  4.0
     Generated by new atomic code, or converted to UPF format
     Using radial grid of  899 points,  6 beta functions with: 
                l(1) =   0
                l(2) =   0
                l(3) =   1
                l(4) =   1
                l(5) =   2
                l(6) =   2
     Q(r) pseudized with  8 coefficients,  rinner =    0.900   0.900   0.900
                                                       0.900   0.900

     atomic species   valence    mass     pseudopotential
        Si             4.00    28.08600     Si( 1.00)

     48 Sym. Ops., with inversion, found



   Cartesian axes

     site n.     atom                  positions (alat units)
         1           Si  tau(   1) = (   0.0000000   0.0000000   0.0000000  )
         2           Si  tau(   2) = (   0.2500000   0.2500000   0.2500000  )

     number of k points=    60
                       cart. coord. in units 2pi/alat
        k(    1) = (  -0.1250000   0.1250000   0.1250000), wk =   0.0468750
        k(    2) = (   0.3750000  -0.3750000   0.6250000), wk =   0.0000000
        k(    3) = (  -0.3750000   0.3750000  -0.1250000), wk =   0.0468750
        k(    4) = (   0.1250000  -0.1250000   0.3750000), wk =   0.0000000
        k(    5) = (   0.3750000  -0.3750000   0.6250000), wk =   0.0468750
        k(    6) = (   0.8750000  -0.8750000   1.1250000), wk =   0.0000000
        k(    7) = (   0.1250000  -0.1250000   0.3750000), wk =   0.0468750
        k(    8) = (   0.6250000  -0.6250000   0.8750000), wk =   0.0000000
        k(    9) = (  -0.1250000   0.6250000   0.1250000), wk =   0.0937500
        k(   10) = (   0.3750000   0.1250000   0.6250000), wk =   0.0000000
        k(   11) = (   0.6250000  -0.1250000   0.8750000), wk =   0.0937500
        k(   12) = (   1.1250000  -0.6250000   1.3750000), wk =   0.0000000
        k(   13) = (   0.3750000   0.1250000   0.6250000), wk =   0.0937500
        k(   14) = (   0.8750000  -0.3750000   1.1250000), wk =   0.0000000
        k(   15) = (  -0.1250000  -0.8750000   0.1250000), wk =   0.0937500
        k(   16) = (   0.3750000  -1.3750000   0.6250000), wk =   0.0000000
        k(   17) = (  -0.3750000   0.3750000   0.3750000), wk =   0.0468750
        k(   18) = (   0.1250000  -0.1250000   0.8750000), wk =   0.0000000
        k(   19) = (   0.3750000  -0.3750000   1.1250000), wk =   0.0468750
        k(   20) = (   0.8750000  -0.8750000   1.6250000), wk =   0.0000000
        k(   21) = (   0.1250000  -0.1250000   0.1250000), wk =   0.0156250
        k(   22) = (   0.6250000  -0.6250000   0.6250000), wk =   0.0000000
        k(   23) = (  -0.3750000  -0.3750000  -0.1250000), wk =   0.0937500
        k(   24) = (   0.1250000  -0.8750000   0.3750000), wk =   0.0000000
        k(   25) = (  -0.1250000  -0.3750000   0.3750000), wk =   0.0468750
        k(   26) = (   0.3750000  -0.8750000   0.8750000), wk =   0.0000000
        k(   27) = (   0.3750000   0.3750000   0.6250000), wk =   0.0937500
        k(   28) = (   0.8750000  -0.1250000   1.1250000), wk =   0.0000000
        k(   29) = (   0.6250000   0.3750000  -0.3750000), wk =   0.0468750
        k(   30) = (   1.1250000  -0.1250000   0.1250000), wk =   0.0000000
        k(   31) = (   0.1250000   0.1250000   0.3750000), wk =   0.0937500
        k(   32) = (   0.6250000  -0.3750000   0.8750000), wk =   0.0000000
        k(   33) = (   0.3750000   0.1250000  -0.1250000), wk =   0.0468750
        k(   34) = (   0.8750000  -0.3750000   0.3750000), wk =   0.0000000
        k(   35) = (  -0.1250000  -0.6250000  -0.1250000), wk =   0.0468750
        k(   36) = (   0.3750000  -1.1250000   0.3750000), wk =   0.0000000
        k(   37) = (   0.1250000  -0.6250000   0.1250000), wk =   0.0468750
        k(   38) = (   0.6250000  -1.1250000   0.6250000), wk =   0.0000000
        k(   39) = (   0.6250000   0.1250000   0.8750000), wk =   0.0937500
        k(   40) = (   1.1250000  -0.3750000   1.3750000), wk =   0.0000000
        k(   41) = (  -0.8750000   0.1250000   0.6250000), wk =   0.0937500
        k(   42) = (  -0.3750000  -0.3750000   1.1250000), wk =   0.0000000
        k(   43) = (   0.8750000   0.1250000  -0.6250000), wk =   0.0937500
        k(   44) = (   1.3750000  -0.3750000  -0.1250000), wk =   0.0000000
        k(   45) = (   0.3750000  -0.1250000   0.6250000), wk =   0.0937500
        k(   46) = (   0.8750000  -0.6250000   1.1250000), wk =   0.0000000
        k(   47) = (  -0.6250000  -0.1250000   0.3750000), wk =   0.0937500
        k(   48) = (  -0.1250000  -0.6250000   0.8750000), wk =   0.0000000
        k(   49) = (   0.6250000  -0.1250000  -0.3750000), wk =   0.0937500
        k(   50) = (   1.1250000  -0.6250000   0.1250000), wk =   0.0000000
        k(   51) = (  -0.1250000   0.8750000  -0.1250000), wk =   0.0468750
        k(   52) = (   0.3750000   0.3750000   0.3750000), wk =   0.0000000
        k(   53) = (   0.1250000   0.8750000   0.1250000), wk =   0.0468750
        k(   54) = (   0.6250000   0.3750000   0.6250000), wk =   0.0000000
        k(   55) = (   0.3750000  -0.3750000   0.3750000), wk =   0.0156250
        k(   56) = (   0.8750000  -0.8750000   0.8750000), wk =   0.0000000
        k(   57) = (   0.3750000   0.3750000   1.1250000), wk =   0.0937500
        k(   58) = (   0.8750000  -0.1250000   1.6250000), wk =   0.0000000
        k(   59) = (   1.1250000   0.3750000  -0.3750000), wk =   0.0468750
        k(   60) = (   1.6250000  -0.1250000   0.1250000), wk =   0.0000000

     Dense  grid:    17477 G-vectors     FFT dimensions: (  40,  40,  40)

     Smooth grid:     6183 G-vectors     FFT dimensions: (  25,  25,  25)

     Estimated max dynamical RAM per process >       1.79MB

     Estimated total allocated dynamical RAM >       7.17MB

     The potential is recalculated from file :
     ./_ph0/silicon.10.376.save/charge-density.dat

     Starting wfc are    8 atomic wfcs

     Band Structure Calculation
     Davidson diagonalization with overlap

     ethr =  1.25E-10,  avg # of iterations = 12.2

     total cpu time spent up to now is        2.5 secs

     End of band structure calculation

          k =-0.1250 0.1250 0.1250 (   785 PWs)   bands (ev):

    -5.6826   4.2645   5.5745   5.5745

          k = 0.3750-0.3750 0.6250 (   776 PWs)   bands (ev):

    -3.5457  -0.7572   3.6252   4.3366

          k =-0.3750 0.3750-0.1250 (   785 PWs)   bands (ev):

    -4.6681   1.2932   3.6103   5.0977

          k = 0.1250-0.1250 0.3750 (   785 PWs)   bands (ev):

    -5.1607   2.6543   4.5799   4.6367

          k = 0.3750-0.3750 0.6250 (   776 PWs)   bands (ev):

    -3.5457  -0.7572   3.6252   4.3366

          k = 0.8750-0.8750 1.1250 (   785 PWs)   bands (ev):

    -5.6826   4.2645   5.5745   5.5745

          k = 0.1250-0.1250 0.3750 (   785 PWs)   bands (ev):

    -5.1607   2.6543   4.5799   4.6367

          k = 0.6250-0.6250 0.8750 (   785 PWs)   bands (ev):

    -4.6681   1.2932   3.6103   5.0977

          k =-0.1250 0.6250 0.1250 (   777 PWs)   bands (ev):

    -4.1412   0.9484   3.2687   3.7157

          k = 0.3750 0.1250 0.6250 (   780 PWs)   bands (ev):

    -3.7319   0.0919   2.6322   3.9875

          k = 0.6250-0.1250 0.8750 (   764 PWs)   bands (ev):

    -2.5237  -0.9947   1.9358   2.9979

          k = 1.1250-0.6250 1.3750 (   785 PWs)   bands (ev):

    -4.6681   1.2932   3.6103   5.0977

          k = 0.3750 0.1250 0.6250 (   780 PWs)   bands (ev):

    -3.7319   0.0919   2.6322   3.9875

          k = 0.8750-0.3750 1.1250 (   777 PWs)   bands (ev):

    -4.1412   0.9484   3.2687   3.7157

          k =-0.1250-0.8750 0.1250 (   772 PWs)   bands (ev):

    -2.6865  -0.9001   2.5368   3.2537

          k = 0.3750-1.3750 0.6250 (   776 PWs)   bands (ev):

    -3.5457  -0.7572   3.6252   4.3366

          k =-0.3750 0.3750 0.3750 (   775 PWs)   bands (ev):

    -4.2414   0.0226   4.7945   4.7945

          k = 0.1250-0.1250 0.8750 (   772 PWs)   bands (ev):

    -2.6865  -0.9001   2.5368   3.2537

          k = 0.3750-0.3750 1.1250 (   775 PWs)   bands (ev):

    -3.0554  -0.6858   1.9887   4.0240

          k = 0.8750-0.8750 1.6250 (   777 PWs)   bands (ev):

    -4.1412   0.9484   3.2687   3.7157

          k = 0.1250-0.1250 0.1250 (   785 PWs)   bands (ev):

    -5.6826   4.2645   5.5745   5.5745

          k = 0.6250-0.6250 0.6250 (   775 PWs)   bands (ev):

    -4.2414   0.0226   4.7945   4.7945

          k =-0.3750-0.3750-0.1250 (   785 PWs)   bands (ev):

    -4.6681   1.2932   3.6103   5.0977

          k = 0.1250-0.8750 0.3750 (   764 PWs)   bands (ev):

    -2.5237  -0.9947   1.9358   2.9979

          k =-0.1250-0.3750 0.3750 (   785 PWs)   bands (ev):

    -4.6681   1.2932   3.6103   5.0977

          k = 0.3750-0.8750 0.8750 (   777 PWs)   bands (ev):

    -4.1412   0.9484   3.2687   3.7157

          k = 0.3750 0.3750 0.6250 (   776 PWs)   bands (ev):

    -3.5457  -0.7572   3.6252   4.3366

          k = 0.8750-0.1250 1.1250 (   772 PWs)   bands (ev):

    -2.6865  -0.9001   2.5368   3.2537

          k = 0.6250 0.3750-0.3750 (   776 PWs)   bands (ev):

    -3.5457  -0.7572   3.6252   4.3366

          k = 1.1250-0.1250 0.1250 (   772 PWs)   bands (ev):

    -2.6865  -0.9001   2.5368   3.2537

          k = 0.1250 0.1250 0.3750 (   785 PWs)   bands (ev):

    -5.1607   2.6543   4.5799   4.6367

          k = 0.6250-0.3750 0.8750 (   780 PWs)   bands (ev):

    -3.7319   0.0919   2.6322   3.9875

          k = 0.3750 0.1250-0.1250 (   785 PWs)   bands (ev):

    -5.1607   2.6543   4.5799   4.6367

          k = 0.8750-0.3750 0.3750 (   775 PWs)   bands (ev):

    -3.0554  -0.6858   1.9887   4.0240

          k =-0.1250-0.6250-0.1250 (   777 PWs)   bands (ev):

    -4.1412   0.9484   3.2687   3.7157

          k = 0.3750-1.1250 0.3750 (   775 PWs)   bands (ev):

    -3.0554  -0.6858   1.9887   4.0240

          k = 0.1250-0.6250 0.1250 (   777 PWs)   bands (ev):

    -4.1412   0.9484   3.2687   3.7157

          k = 0.6250-1.1250 0.6250 (   785 PWs)   bands (ev):

    -4.6681   1.2932   3.6103   5.0977

          k = 0.6250 0.1250 0.8750 (   764 PWs)   bands (ev):

    -2.5237  -0.9947   1.9358   2.9979

          k = 1.1250-0.3750 1.3750 (   780 PWs)   bands (ev):

    -3.7319   0.0919   2.6322   3.9875

          k =-0.8750 0.1250 0.6250 (   764 PWs)   bands (ev):

    -2.5237  -0.9947   1.9358   2.9979

          k =-0.3750-0.3750 1.1250 (   775 PWs)   bands (ev):

    -3.0554  -0.6858   1.9887   4.0240

          k = 0.8750 0.1250-0.6250 (   764 PWs)   bands (ev):

    -2.5237  -0.9947   1.9358   2.9979

          k = 1.3750-0.3750-0.1250 (   780 PWs)   bands (ev):

    -3.7319   0.0919   2.6322   3.9875

          k = 0.3750-0.1250 0.6250 (   780 PWs)   bands (ev):

    -3.7319   0.0919   2.6322   3.9875

          k = 0.8750-0.6250 1.1250 (   785 PWs)   bands (ev):

    -5.1607   2.6543   4.5799   4.6367

          k =-0.6250-0.1250 0.3750 (   780 PWs)   bands (ev):

    -3.7319   0.0919   2.6322   3.9875

          k =-0.1250-0.6250 0.8750 (   764 PWs)   bands (ev):

    -2.5237  -0.9947   1.9358   2.9979

          k = 0.6250-0.1250-0.3750 (   780 PWs)   bands (ev):

    -3.7319   0.0919   2.6322   3.9875

          k = 1.1250-0.6250 0.1250 (   764 PWs)   bands (ev):

    -2.5237  -0.9947   1.9358   2.9979

          k =-0.1250 0.8750-0.1250 (   772 PWs)   bands (ev):

    -2.6865  -0.9001   2.5368   3.2537

          k = 0.3750 0.3750 0.3750 (   775 PWs)   bands (ev):

    -4.2414   0.0226   4.7945   4.7945

          k = 0.1250 0.8750 0.1250 (   772 PWs)   bands (ev):

    -2.6865  -0.9001   2.5368   3.2537

          k = 0.6250 0.3750 0.6250 (   776 PWs)   bands (ev):

    -3.5457  -0.7572   3.6252   4.3366

          k = 0.3750-0.3750 0.3750 (   775 PWs)   bands (ev):

    -4.2414   0.0226   4.7945   4.7945

          k = 0.8750-0.8750 0.8750 (   785 PWs)   bands (ev):

    -5.6826   4.2645   5.5745   5.5745

          k = 0.3750 0.3750 1.1250 (   775 PWs)   bands (ev):

    -3.0554  -0.6858   1.9887   4.0240

          k = 0.8750-0.1250 1.6250 (   764 PWs)   bands (ev):

    -2.5237  -0.9947   1.9358   2.9979

          k = 1.1250 0.3750-0.3750 (   775 PWs)   bands (ev):

    -3.0554  -0.6858   1.9887   4.0240

          k = 1.6250-0.1250 0.1250 (   785 PWs)   bands (ev):

    -5.1607   2.6543   4.5799   4.6367

     highest occupied level (ev):     5.5745

     Writing output data file silicon.10.376.save

                                                                                

     bravais-lattice index     =            2
     lattice parameter (alat)  =      10.3760  a.u.
     unit-cell volume          =     279.2736 (a.u.)^3
     number of atoms/cell      =            2
     number of atomic types    =            1
     kinetic-energy cut-off    =      30.0000  Ry
     charge density cut-off    =     240.0000  Ry
     convergence threshold     =      1.0E-12
     beta                      =       0.7000
     number of iterations used =            4
     Exchange-correlation      = SLA  PW   PBE  PBE ( 1  4  3  4 0 0)


     celldm(1)=   10.37600  celldm(2)=    0.00000  celldm(3)=    0.00000
     celldm(4)=    0.00000  celldm(5)=    0.00000  celldm(6)=    0.00000

     crystal axes: (cart. coord. in units of alat)
               a(1) = ( -0.5000  0.0000  0.5000 )  
               a(2) = (  0.0000  0.5000  0.5000 )  
               a(3) = ( -0.5000  0.5000  0.0000 )  

     reciprocal axes: (cart. coord. in units 2 pi/alat)
               b(1) = ( -1.0000 -1.0000  1.0000 )  
               b(2) = (  1.0000  1.0000  1.0000 )  
               b(3) = ( -1.0000  1.0000 -1.0000 )  


     Atoms inside the unit cell: 

     Cartesian axes

     site n.  atom      mass           positions (alat units)
        1     Si  28.0860   tau(    1) = (    0.00000    0.00000    0.00000  )
        2     Si  28.0860   tau(    2) = (    0.25000    0.25000    0.25000  )

     Computing dynamical matrix for 
                    q = (   0.5000000  -0.5000000   0.5000000 )

     13 Sym.Ops. (with q -> -q+G )


     G cutoff =  654.5027  (   4369 G-vectors)     FFT grid: ( 40, 40, 40)
     G cutoff =  327.2513  (   1546 G-vectors)  smooth grid: ( 25, 25, 25)
     number of k points=    60

     PseudoPot. # 1 for Si read from file:
     /home/s1333534/quantum_espresso/qe-6.1/pseudo/si_pbe_v1.uspp.F.UPF.txt
     MD5 check sum: a056efeee980c13900f22a371efd63c1
     Pseudo is Ultrasoft + core correction, Zval =  4.0
     Generated by new atomic code, or converted to UPF format
     Using radial grid of  899 points,  6 beta functions with: 
                l(1) =   0
                l(2) =   0
                l(3) =   1
                l(4) =   1
                l(5) =   2
                l(6) =   2
     Q(r) pseudized with  8 coefficients,  rinner =    0.900   0.900   0.900
                                                       0.900   0.900


     Atomic displacements:
     There are   4 irreducible representations

     Representation     1      1 modes -  To be done

     Representation     2      1 modes -  To be done

     Representation     3      2 modes -  To be done

     Representation     4      2 modes -  To be done



     Alpha used in Ewald sum =   2.5000
     PHONON       :    29.60s CPU        39.51s WALL



     Representation #  1 mode #   1

     Self-consistent Calculation

      iter #   1 total cpu time :    39.8 secs   av.it.:   5.1
      thresh= 1.000E-02 alpha_mix =  0.700 |ddv_scf|^2 =  3.012E-06

      iter #   2 total cpu time :    40.3 secs   av.it.:  10.1
      thresh= 1.736E-04 alpha_mix =  0.700 |ddv_scf|^2 =  2.796E-06

      iter #   3 total cpu time :    40.7 secs   av.it.:   9.4
      thresh= 1.672E-04 alpha_mix =  0.700 |ddv_scf|^2 =  1.648E-09

      iter #   4 total cpu time :    41.2 secs   av.it.:   9.6
      thresh= 4.060E-06 alpha_mix =  0.700 |ddv_scf|^2 =  1.576E-11

      iter #   5 total cpu time :    41.6 secs   av.it.:   9.5
      thresh= 3.970E-07 alpha_mix =  0.700 |ddv_scf|^2 =  2.272E-13

     End of self-consistent calculation

     Convergence has been achieved 


     Representation #  2 mode #   2

     Self-consistent Calculation

      iter #   1 total cpu time :    42.1 secs   av.it.:   6.0
      thresh= 1.000E-02 alpha_mix =  0.700 |ddv_scf|^2 =  4.279E-05

      iter #   2 total cpu time :    42.5 secs   av.it.:  10.0
      thresh= 6.541E-04 alpha_mix =  0.700 |ddv_scf|^2 =  1.336E-04

      iter #   3 total cpu time :    43.0 secs   av.it.:   8.9
      thresh= 1.156E-03 alpha_mix =  0.700 |ddv_scf|^2 =  1.037E-08

      iter #   4 total cpu time :    43.4 secs   av.it.:  10.1
      thresh= 1.018E-05 alpha_mix =  0.700 |ddv_scf|^2 =  5.242E-10

      iter #   5 total cpu time :    43.8 secs   av.it.:  10.4
      thresh= 2.290E-06 alpha_mix =  0.700 |ddv_scf|^2 =  1.532E-11

      iter #   6 total cpu time :    44.2 secs   av.it.:   9.9
      thresh= 3.914E-07 alpha_mix =  0.700 |ddv_scf|^2 =  1.131E-13

     End of self-consistent calculation

     Convergence has been achieved 


     Representation #  3 modes #   3  4

     Self-consistent Calculation

      iter #   1 total cpu time :    44.9 secs   av.it.:   5.1
      thresh= 1.000E-02 alpha_mix =  0.700 |ddv_scf|^2 =  1.947E-08

      iter #   2 total cpu time :    45.7 secs   av.it.:  11.1
      thresh= 1.395E-05 alpha_mix =  0.700 |ddv_scf|^2 =  1.143E-09

      iter #   3 total cpu time :    46.5 secs   av.it.:  10.9
      thresh= 3.381E-06 alpha_mix =  0.700 |ddv_scf|^2 =  3.893E-11

      iter #   4 total cpu time :    47.2 secs   av.it.:  10.8
      thresh= 6.240E-07 alpha_mix =  0.700 |ddv_scf|^2 =  3.183E-13

     End of self-consistent calculation

     Convergence has been achieved 


     Representation #  4 modes #   5  6

     Self-consistent Calculation

      iter #   1 total cpu time :    48.0 secs   av.it.:   5.1
      thresh= 1.000E-02 alpha_mix =  0.700 |ddv_scf|^2 =  1.001E-07

      iter #   2 total cpu time :    48.9 secs   av.it.:  11.3
      thresh= 3.163E-05 alpha_mix =  0.700 |ddv_scf|^2 =  8.051E-09

      iter #   3 total cpu time :    49.7 secs   av.it.:  11.2
      thresh= 8.973E-06 alpha_mix =  0.700 |ddv_scf|^2 =  2.107E-10

      iter #   4 total cpu time :    50.5 secs   av.it.:  10.1
      thresh= 1.451E-06 alpha_mix =  0.700 |ddv_scf|^2 =  3.900E-13

     End of self-consistent calculation

     Convergence has been achieved 

     Number of q in the star =    4
     List of q in the star:
          1   0.500000000  -0.500000000   0.500000000
          2   0.500000000   0.500000000   0.500000000
          3  -0.500000000   0.500000000   0.500000000
          4   0.500000000   0.500000000  -0.500000000

     Diagonalizing the dynamical matrix

     q = (    0.500000000  -0.500000000   0.500000000 ) 

 **************************************************************************
     freq (    1) =       3.363050 [THz] =     112.179263 [cm-1]
     freq (    2) =       3.363050 [THz] =     112.179263 [cm-1]
     freq (    3) =      11.046797 [THz] =     368.481495 [cm-1]
     freq (    4) =      11.727790 [THz] =     391.196975 [cm-1]
     freq (    5) =      14.066007 [THz] =     469.191498 [cm-1]
     freq (    6) =      14.066007 [THz] =     469.191498 [cm-1]
 **************************************************************************

     Calculation of q =    0.0000000   0.5000000   0.0000000

   Info: using nr1, nr2, nr3 values from input

   Info: using nr1, nr2, nr3 values from input

     Parallelization info
     --------------------
     sticks:   dense  smooth     PW     G-vecs:    dense   smooth      PW
     Min         222     109     40                 4369     1545     322
     Max         223     110     42                 4370     1547     323
     Sum         889     439    163                17477     6183    1291



     bravais-lattice index     =            2
     lattice parameter (alat)  =      10.3760  a.u.
     unit-cell volume          =     279.2736 (a.u.)^3
     number of atoms/cell      =            2
     number of atomic types    =            1
     number of electrons       =         8.00
     number of Kohn-Sham states=            4
     kinetic-energy cutoff     =      30.0000  Ry
     charge density cutoff     =     240.0000  Ry
     Exchange-correlation      = SLA  PW   PBE  PBE ( 1  4  3  4 0 0)

     celldm(1)=  10.376000  celldm(2)=   0.000000  celldm(3)=   0.000000
     celldm(4)=   0.000000  celldm(5)=   0.000000  celldm(6)=   0.000000

     crystal axes: (cart. coord. in units of alat)
               a(1) = (  -0.500000   0.000000   0.500000 )  
               a(2) = (   0.000000   0.500000   0.500000 )  
               a(3) = (  -0.500000   0.500000   0.000000 )  

     reciprocal axes: (cart. coord. in units 2 pi/alat)
               b(1) = ( -1.000000 -1.000000  1.000000 )  
               b(2) = (  1.000000  1.000000  1.000000 )  
               b(3) = ( -1.000000  1.000000 -1.000000 )  


     PseudoPot. # 1 for Si read from file:
     /home/s1333534/quantum_espresso/qe-6.1/pseudo/si_pbe_v1.uspp.F.UPF.txt
     MD5 check sum: a056efeee980c13900f22a371efd63c1
     Pseudo is Ultrasoft + core correction, Zval =  4.0
     Generated by new atomic code, or converted to UPF format
     Using radial grid of  899 points,  6 beta functions with: 
                l(1) =   0
                l(2) =   0
                l(3) =   1
                l(4) =   1
                l(5) =   2
                l(6) =   2
     Q(r) pseudized with  8 coefficients,  rinner =    0.900   0.900   0.900
                                                       0.900   0.900

     atomic species   valence    mass     pseudopotential
        Si             4.00    28.08600     Si( 1.00)

     48 Sym. Ops., with inversion, found



   Cartesian axes

     site n.     atom                  positions (alat units)
         1           Si  tau(   1) = (   0.0000000   0.0000000   0.0000000  )
         2           Si  tau(   2) = (   0.2500000   0.2500000   0.2500000  )

     number of k points=    80
                       cart. coord. in units 2pi/alat
        k(    1) = (  -0.1250000   0.1250000   0.1250000), wk =   0.0312500
        k(    2) = (  -0.1250000   0.6250000   0.1250000), wk =   0.0000000
        k(    3) = (  -0.3750000   0.3750000  -0.1250000), wk =   0.0625000
        k(    4) = (  -0.3750000   0.8750000  -0.1250000), wk =   0.0000000
        k(    5) = (   0.3750000  -0.3750000   0.6250000), wk =   0.0625000
        k(    6) = (   0.3750000   0.1250000   0.6250000), wk =   0.0000000
        k(    7) = (   0.1250000  -0.1250000   0.3750000), wk =   0.0625000
        k(    8) = (   0.1250000   0.3750000   0.3750000), wk =   0.0000000
        k(    9) = (  -0.1250000   0.6250000   0.1250000), wk =   0.0312500
        k(   10) = (  -0.1250000   1.1250000   0.1250000), wk =   0.0000000
        k(   11) = (   0.6250000  -0.1250000   0.8750000), wk =   0.0625000
        k(   12) = (   0.6250000   0.3750000   0.8750000), wk =   0.0000000
        k(   13) = (   0.3750000   0.1250000   0.6250000), wk =   0.0625000
        k(   14) = (   0.3750000   0.6250000   0.6250000), wk =   0.0000000
        k(   15) = (  -0.1250000  -0.8750000   0.1250000), wk =   0.0312500
        k(   16) = (  -0.1250000  -0.3750000   0.1250000), wk =   0.0000000
        k(   17) = (  -0.3750000   0.3750000   0.3750000), wk =   0.0312500
        k(   18) = (  -0.3750000   0.8750000   0.3750000), wk =   0.0000000
        k(   19) = (   0.3750000  -0.3750000   1.1250000), wk =   0.0625000
        k(   20) = (   0.3750000   0.1250000   1.1250000), wk =   0.0000000
        k(   21) = (  -0.1250000  -0.1250000   0.1250000), wk =   0.0312500
        k(   22) = (  -0.1250000   0.3750000   0.1250000), wk =   0.0000000
        k(   23) = (   0.1250000  -0.3750000   0.3750000), wk =   0.0625000
        k(   24) = (   0.1250000   0.1250000   0.3750000), wk =   0.0000000
        k(   25) = (   0.3750000  -0.1250000   0.3750000), wk =   0.0312500
        k(   26) = (   0.3750000   0.3750000   0.3750000), wk =   0.0000000
        k(   27) = (   0.3750000   0.1250000   0.3750000), wk =   0.0312500
        k(   28) = (   0.3750000   0.6250000   0.3750000), wk =   0.0000000
        k(   29) = (  -0.6250000   0.3750000  -0.3750000), wk =   0.0625000
        k(   30) = (  -0.6250000   0.8750000  -0.3750000), wk =   0.0000000
        k(   31) = (  -0.3750000   0.6250000  -0.3750000), wk =   0.0312500
        k(   32) = (  -0.3750000   1.1250000  -0.3750000), wk =   0.0000000
        k(   33) = (  -0.3750000  -0.6250000  -0.3750000), wk =   0.0312500
        k(   34) = (  -0.3750000  -0.1250000  -0.3750000), wk =   0.0000000
        k(   35) = (  -0.3750000   0.1250000  -0.1250000), wk =   0.0625000
        k(   36) = (  -0.3750000   0.6250000  -0.1250000), wk =   0.0000000
        k(   37) = (  -0.1250000   0.3750000  -0.1250000), wk =   0.0312500
        k(   38) = (  -0.1250000   0.8750000  -0.1250000), wk =   0.0000000
        k(   39) = (  -0.1250000  -0.3750000  -0.1250000), wk =   0.0312500
        k(   40) = (  -0.1250000   0.1250000  -0.1250000), wk =   0.0000000
        k(   41) = (  -0.1250000  -0.6250000   0.1250000), wk =   0.0312500
        k(   42) = (  -0.1250000  -0.1250000   0.1250000), wk =   0.0000000
        k(   43) = (   0.6250000  -0.1250000  -0.1250000), wk =   0.0625000
        k(   44) = (   0.6250000   0.3750000  -0.1250000), wk =   0.0000000
        k(   45) = (   0.6250000   0.1250000   0.1250000), wk =   0.0625000
        k(   46) = (   0.6250000   0.6250000   0.1250000), wk =   0.0000000
        k(   47) = (  -0.8750000   0.1250000  -0.6250000), wk =   0.0625000
        k(   48) = (  -0.8750000   0.6250000  -0.6250000), wk =   0.0000000
        k(   49) = (  -0.1250000   0.6250000  -0.8750000), wk =   0.0625000
        k(   50) = (  -0.1250000   1.1250000  -0.8750000), wk =   0.0000000
        k(   51) = (  -0.1250000   0.8750000  -0.6250000), wk =   0.0625000
        k(   52) = (  -0.1250000   1.3750000  -0.6250000), wk =   0.0000000
        k(   53) = (  -0.1250000  -0.8750000  -0.6250000), wk =   0.0625000
        k(   54) = (  -0.1250000  -0.3750000  -0.6250000), wk =   0.0000000
        k(   55) = (   0.8750000  -0.6250000   0.1250000), wk =   0.0625000
        k(   56) = (   0.8750000  -0.1250000   0.1250000), wk =   0.0000000
        k(   57) = (  -0.6250000  -0.1250000  -0.3750000), wk =   0.0625000
        k(   58) = (  -0.6250000   0.3750000  -0.3750000), wk =   0.0000000
        k(   59) = (   0.1250000   0.3750000  -0.6250000), wk =   0.0625000
        k(   60) = (   0.1250000   0.8750000  -0.6250000), wk =   0.0000000
        k(   61) = (   0.1250000   0.6250000  -0.3750000), wk =   0.0625000
        k(   62) = (   0.1250000   1.1250000  -0.3750000), wk =   0.0000000
        k(   63) = (   0.1250000  -0.6250000  -0.3750000), wk =   0.0625000
        k(   64) = (   0.1250000  -0.1250000  -0.3750000), wk =   0.0000000
        k(   65) = (   0.6250000  -0.3750000  -0.1250000), wk =   0.0625000
        k(   66) = (   0.6250000   0.1250000  -0.1250000), wk =   0.0000000
        k(   67) = (  -0.1250000   0.8750000   0.1250000), wk =   0.0312500
        k(   68) = (  -0.1250000   1.3750000   0.1250000), wk =   0.0000000
        k(   69) = (  -0.8750000  -0.1250000  -0.1250000), wk =   0.0625000
        k(   70) = (  -0.8750000   0.3750000  -0.1250000), wk =   0.0000000
        k(   71) = (  -0.8750000   0.1250000   0.1250000), wk =   0.0625000
        k(   72) = (  -0.8750000   0.6250000   0.1250000), wk =   0.0000000
        k(   73) = (  -0.3750000  -0.3750000   0.3750000), wk =   0.0312500
        k(   74) = (  -0.3750000   0.1250000   0.3750000), wk =   0.0000000
        k(   75) = (  -1.1250000   0.3750000  -0.3750000), wk =   0.0625000
        k(   76) = (  -1.1250000   0.8750000  -0.3750000), wk =   0.0000000
        k(   77) = (  -0.3750000   1.1250000  -0.3750000), wk =   0.0312500
        k(   78) = (  -0.3750000   1.6250000  -0.3750000), wk =   0.0000000
        k(   79) = (  -0.3750000  -1.1250000  -0.3750000), wk =   0.0312500
        k(   80) = (  -0.3750000  -0.6250000  -0.3750000), wk =   0.0000000

     Dense  grid:    17477 G-vectors     FFT dimensions: (  40,  40,  40)

     Smooth grid:     6183 G-vectors     FFT dimensions: (  25,  25,  25)

     Estimated max dynamical RAM per process >       1.79MB

     Estimated total allocated dynamical RAM >       7.17MB

     The potential is recalculated from file :
     ./_ph0/silicon.10.376.save/charge-density.dat

     Starting wfc are    8 atomic wfcs

     Band Structure Calculation
     Davidson diagonalization with overlap

     ethr =  1.25E-10,  avg # of iterations = 12.2

     total cpu time spent up to now is        3.6 secs

     End of band structure calculation

          k =-0.1250 0.1250 0.1250 (   785 PWs)   bands (ev):

    -5.6826   4.2645   5.5745   5.5745

          k =-0.1250 0.6250 0.1250 (   777 PWs)   bands (ev):

    -4.1412   0.9484   3.2687   3.7157

          k =-0.3750 0.3750-0.1250 (   785 PWs)   bands (ev):

    -4.6681   1.2932   3.6103   5.0977

          k =-0.3750 0.8750-0.1250 (   764 PWs)   bands (ev):

    -2.5237  -0.9947   1.9358   2.9979

          k = 0.3750-0.3750 0.6250 (   776 PWs)   bands (ev):

    -3.5457  -0.7572   3.6252   4.3366

          k = 0.3750 0.1250 0.6250 (   780 PWs)   bands (ev):

    -3.7319   0.0919   2.6322   3.9875

          k = 0.1250-0.1250 0.3750 (   785 PWs)   bands (ev):

    -5.1607   2.6543   4.5799   4.6367

          k = 0.1250 0.3750 0.3750 (   785 PWs)   bands (ev):

    -4.6681   1.2932   3.6103   5.0977

          k =-0.1250 0.6250 0.1250 (   777 PWs)   bands (ev):

    -4.1412   0.9484   3.2687   3.7157

          k =-0.1250 1.1250 0.1250 (   772 PWs)   bands (ev):

    -2.6865  -0.9001   2.5368   3.2537

          k = 0.6250-0.1250 0.8750 (   764 PWs)   bands (ev):

    -2.5237  -0.9947   1.9358   2.9979

          k = 0.6250 0.3750 0.8750 (   780 PWs)   bands (ev):

    -3.7319   0.0919   2.6322   3.9875

          k = 0.3750 0.1250 0.6250 (   780 PWs)   bands (ev):

    -3.7319   0.0919   2.6322   3.9875

          k = 0.3750 0.6250 0.6250 (   776 PWs)   bands (ev):

    -3.5457  -0.7572   3.6252   4.3366

          k =-0.1250-0.8750 0.1250 (   772 PWs)   bands (ev):

    -2.6865  -0.9001   2.5368   3.2537

          k =-0.1250-0.3750 0.1250 (   785 PWs)   bands (ev):

    -5.1607   2.6543   4.5799   4.6367

          k =-0.3750 0.3750 0.3750 (   775 PWs)   bands (ev):

    -4.2414   0.0226   4.7945   4.7945

          k =-0.3750 0.8750 0.3750 (   775 PWs)   bands (ev):

    -3.0554  -0.6858   1.9887   4.0240

          k = 0.3750-0.3750 1.1250 (   775 PWs)   bands (ev):

    -3.0554  -0.6858   1.9887   4.0240

          k = 0.3750 0.1250 1.1250 (   764 PWs)   bands (ev):

    -2.5237  -0.9947   1.9358   2.9979

          k =-0.1250-0.1250 0.1250 (   785 PWs)   bands (ev):

    -5.6826   4.2645   5.5745   5.5745

          k =-0.1250 0.3750 0.1250 (   785 PWs)   bands (ev):

    -5.1607   2.6543   4.5799   4.6367

          k = 0.1250-0.3750 0.3750 (   785 PWs)   bands (ev):

    -4.6681   1.2932   3.6103   5.0977

          k = 0.1250 0.1250 0.3750 (   785 PWs)   bands (ev):

    -5.1607   2.6543   4.5799   4.6367

          k = 0.3750-0.1250 0.3750 (   785 PWs)   bands (ev):

    -4.6681   1.2932   3.6103   5.0977

          k = 0.3750 0.3750 0.3750 (   775 PWs)   bands (ev):

    -4.2414   0.0226   4.7945   4.7945

          k = 0.3750 0.1250 0.3750 (   785 PWs)   bands (ev):

    -4.6681   1.2932   3.6103   5.0977

          k = 0.3750 0.6250 0.3750 (   776 PWs)   bands (ev):

    -3.5457  -0.7572   3.6252   4.3366

          k =-0.6250 0.3750-0.3750 (   776 PWs)   bands (ev):

    -3.5457  -0.7572   3.6252   4.3366

          k =-0.6250 0.8750-0.3750 (   780 PWs)   bands (ev):

    -3.7319   0.0919   2.6322   3.9875

          k =-0.3750 0.6250-0.3750 (   776 PWs)   bands (ev):

    -3.5457  -0.7572   3.6252   4.3366

          k =-0.3750 1.1250-0.3750 (   775 PWs)   bands (ev):

    -3.0554  -0.6858   1.9887   4.0240

          k =-0.3750-0.6250-0.3750 (   776 PWs)   bands (ev):

    -3.5457  -0.7572   3.6252   4.3366

          k =-0.3750-0.1250-0.3750 (   785 PWs)   bands (ev):

    -4.6681   1.2932   3.6103   5.0977

          k =-0.3750 0.1250-0.1250 (   785 PWs)   bands (ev):

    -5.1607   2.6543   4.5799   4.6367

          k =-0.3750 0.6250-0.1250 (   780 PWs)   bands (ev):

    -3.7319   0.0919   2.6322   3.9875

          k =-0.1250 0.3750-0.1250 (   785 PWs)   bands (ev):

    -5.1607   2.6543   4.5799   4.6367

          k =-0.1250 0.8750-0.1250 (   772 PWs)   bands (ev):

    -2.6865  -0.9001   2.5368   3.2537

          k =-0.1250-0.3750-0.1250 (   785 PWs)   bands (ev):

    -5.1607   2.6543   4.5799   4.6367

          k =-0.1250 0.1250-0.1250 (   785 PWs)   bands (ev):

    -5.6826   4.2645   5.5745   5.5745

          k =-0.1250-0.6250 0.1250 (   777 PWs)   bands (ev):

    -4.1412   0.9484   3.2687   3.7157

          k =-0.1250-0.1250 0.1250 (   785 PWs)   bands (ev):

    -5.6826   4.2645   5.5745   5.5745

          k = 0.6250-0.1250-0.1250 (   777 PWs)   bands (ev):

    -4.1412   0.9484   3.2687   3.7157

          k = 0.6250 0.3750-0.1250 (   780 PWs)   bands (ev):

    -3.7319   0.0919   2.6322   3.9875

          k = 0.6250 0.1250 0.1250 (   777 PWs)   bands (ev):

    -4.1412   0.9484   3.2687   3.7157

          k = 0.6250 0.6250 0.1250 (   775 PWs)   bands (ev):

    -3.0554  -0.6858   1.9887   4.0240

          k =-0.8750 0.1250-0.6250 (   764 PWs)   bands (ev):

    -2.5237  -0.9947   1.9358   2.9979

          k =-0.8750 0.6250-0.6250 (   785 PWs)   bands (ev):

    -4.6681   1.2932   3.6103   5.0977

          k =-0.1250 0.6250-0.8750 (   764 PWs)   bands (ev):

    -2.5237  -0.9947   1.9358   2.9979

          k =-0.1250 1.1250-0.8750 (   772 PWs)   bands (ev):

    -2.6865  -0.9001   2.5368   3.2537

          k =-0.1250 0.8750-0.6250 (   764 PWs)   bands (ev):

    -2.5237  -0.9947   1.9358   2.9979

          k =-0.1250 1.3750-0.6250 (   775 PWs)   bands (ev):

    -3.0554  -0.6858   1.9887   4.0240

          k =-0.1250-0.8750-0.6250 (   764 PWs)   bands (ev):

    -2.5237  -0.9947   1.9358   2.9979

          k =-0.1250-0.3750-0.6250 (   780 PWs)   bands (ev):

    -3.7319   0.0919   2.6322   3.9875

          k = 0.8750-0.6250 0.1250 (   764 PWs)   bands (ev):

    -2.5237  -0.9947   1.9358   2.9979

          k = 0.8750-0.1250 0.1250 (   772 PWs)   bands (ev):

    -2.6865  -0.9001   2.5368   3.2537

          k =-0.6250-0.1250-0.3750 (   780 PWs)   bands (ev):

    -3.7319   0.0919   2.6322   3.9875

          k =-0.6250 0.3750-0.3750 (   776 PWs)   bands (ev):

    -3.5457  -0.7572   3.6252   4.3366

          k = 0.1250 0.3750-0.6250 (   780 PWs)   bands (ev):

    -3.7319   0.0919   2.6322   3.9875

          k = 0.1250 0.8750-0.6250 (   764 PWs)   bands (ev):

    -2.5237  -0.9947   1.9358   2.9979

          k = 0.1250 0.6250-0.3750 (   780 PWs)   bands (ev):

    -3.7319   0.0919   2.6322   3.9875

          k = 0.1250 1.1250-0.3750 (   764 PWs)   bands (ev):

    -2.5237  -0.9947   1.9358   2.9979

          k = 0.1250-0.6250-0.3750 (   780 PWs)   bands (ev):

    -3.7319   0.0919   2.6322   3.9875

          k = 0.1250-0.1250-0.3750 (   785 PWs)   bands (ev):

    -5.1607   2.6543   4.5799   4.6367

          k = 0.6250-0.3750-0.1250 (   780 PWs)   bands (ev):

    -3.7319   0.0919   2.6322   3.9875

          k = 0.6250 0.1250-0.1250 (   777 PWs)   bands (ev):

    -4.1412   0.9484   3.2687   3.7157

          k =-0.1250 0.8750 0.1250 (   772 PWs)   bands (ev):

    -2.6865  -0.9001   2.5368   3.2537

          k =-0.1250 1.3750 0.1250 (   777 PWs)   bands (ev):

    -4.1412   0.9484   3.2687   3.7157

          k =-0.8750-0.1250-0.1250 (   772 PWs)   bands (ev):

    -2.6865  -0.9001   2.5368   3.2537

          k =-0.8750 0.3750-0.1250 (   764 PWs)   bands (ev):

    -2.5237  -0.9947   1.9358   2.9979

          k =-0.8750 0.1250 0.1250 (   772 PWs)   bands (ev):

    -2.6865  -0.9001   2.5368   3.2537

          k =-0.8750 0.6250 0.1250 (   764 PWs)   bands (ev):

    -2.5237  -0.9947   1.9358   2.9979

          k =-0.3750-0.3750 0.3750 (   775 PWs)   bands (ev):

    -4.2414   0.0226   4.7945   4.7945

          k =-0.3750 0.1250 0.3750 (   785 PWs)   bands (ev):

    -4.6681   1.2932   3.6103   5.0977

          k =-1.1250 0.3750-0.3750 (   775 PWs)   bands (ev):

    -3.0554  -0.6858   1.9887   4.0240

          k =-1.1250 0.8750-0.3750 (   777 PWs)   bands (ev):

    -4.1412   0.9484   3.2687   3.7157

          k =-0.3750 1.1250-0.3750 (   775 PWs)   bands (ev):

    -3.0554  -0.6858   1.9887   4.0240

          k =-0.3750 1.6250-0.3750 (   775 PWs)   bands (ev):

    -4.2414   0.0226   4.7945   4.7945

          k =-0.3750-1.1250-0.3750 (   775 PWs)   bands (ev):

    -3.0554  -0.6858   1.9887   4.0240

          k =-0.3750-0.6250-0.3750 (   776 PWs)   bands (ev):

    -3.5457  -0.7572   3.6252   4.3366

     highest occupied level (ev):     5.5745

     Writing output data file silicon.10.376.save

                                                                                

     bravais-lattice index     =            2
     lattice parameter (alat)  =      10.3760  a.u.
     unit-cell volume          =     279.2736 (a.u.)^3
     number of atoms/cell      =            2
     number of atomic types    =            1
     kinetic-energy cut-off    =      30.0000  Ry
     charge density cut-off    =     240.0000  Ry
     convergence threshold     =      1.0E-12
     beta                      =       0.7000
     number of iterations used =            4
     Exchange-correlation      = SLA  PW   PBE  PBE ( 1  4  3  4 0 0)


     celldm(1)=   10.37600  celldm(2)=    0.00000  celldm(3)=    0.00000
     celldm(4)=    0.00000  celldm(5)=    0.00000  celldm(6)=    0.00000

     crystal axes: (cart. coord. in units of alat)
               a(1) = ( -0.5000  0.0000  0.5000 )  
               a(2) = (  0.0000  0.5000  0.5000 )  
               a(3) = ( -0.5000  0.5000  0.0000 )  

     reciprocal axes: (cart. coord. in units 2 pi/alat)
               b(1) = ( -1.0000 -1.0000  1.0000 )  
               b(2) = (  1.0000  1.0000  1.0000 )  
               b(3) = ( -1.0000  1.0000 -1.0000 )  


     Atoms inside the unit cell: 

     Cartesian axes

     site n.  atom      mass           positions (alat units)
        1     Si  28.0860   tau(    1) = (    0.00000    0.00000    0.00000  )
        2     Si  28.0860   tau(    2) = (    0.25000    0.25000    0.25000  )

     Computing dynamical matrix for 
                    q = (   0.0000000   0.5000000   0.0000000 )

      8 Sym.Ops. (no q -> -q+G )


     G cutoff =  654.5027  (   4369 G-vectors)     FFT grid: ( 40, 40, 40)
     G cutoff =  327.2513  (   1545 G-vectors)  smooth grid: ( 25, 25, 25)
     number of k points=    80

     PseudoPot. # 1 for Si read from file:
     /home/s1333534/quantum_espresso/qe-6.1/pseudo/si_pbe_v1.uspp.F.UPF.txt
     MD5 check sum: a056efeee980c13900f22a371efd63c1
     Pseudo is Ultrasoft + core correction, Zval =  4.0
     Generated by new atomic code, or converted to UPF format
     Using radial grid of  899 points,  6 beta functions with: 
                l(1) =   0
                l(2) =   0
                l(3) =   1
                l(4) =   1
                l(5) =   2
                l(6) =   2
     Q(r) pseudized with  8 coefficients,  rinner =    0.900   0.900   0.900
                                                       0.900   0.900

     Mode symmetry, C_4v (4mm)  point group:


     Atomic displacements:
     There are   4 irreducible representations

     Representation     1      1 modes -A_1  G_1 D_1  To be done

     Representation     2      1 modes -B_2  G_4 D_2'  To be done

     Representation     3      2 modes -E    G_5 D_5  To be done

     Representation     4      2 modes -E    G_5 D_5  To be done



     Alpha used in Ewald sum =   2.5000
     PHONON       :    39.93s CPU        53.33s WALL



     Representation #  1 mode #   1

     Self-consistent Calculation

      iter #   1 total cpu time :    53.7 secs   av.it.:   6.2
      thresh= 1.000E-02 alpha_mix =  0.700 |ddv_scf|^2 =  3.697E-04

      iter #   2 total cpu time :    54.2 secs   av.it.:   9.5
      thresh= 1.923E-03 alpha_mix =  0.700 |ddv_scf|^2 =  4.938E-03

      iter #   3 total cpu time :    54.7 secs   av.it.:   7.5
      thresh= 7.027E-03 alpha_mix =  0.700 |ddv_scf|^2 =  7.140E-09

      iter #   4 total cpu time :    55.2 secs   av.it.:  10.3
      thresh= 8.450E-06 alpha_mix =  0.700 |ddv_scf|^2 =  7.729E-10

      iter #   5 total cpu time :    55.7 secs   av.it.:   9.8
      thresh= 2.780E-06 alpha_mix =  0.700 |ddv_scf|^2 =  7.950E-11

      iter #   6 total cpu time :    56.2 secs   av.it.:   9.6
      thresh= 8.916E-07 alpha_mix =  0.700 |ddv_scf|^2 =  1.988E-13

     End of self-consistent calculation

     Convergence has been achieved 


     Representation #  2 mode #   2

     Self-consistent Calculation

      iter #   1 total cpu time :    56.6 secs   av.it.:   5.1
      thresh= 1.000E-02 alpha_mix =  0.700 |ddv_scf|^2 =  5.881E-07

      iter #   2 total cpu time :    57.1 secs   av.it.:  10.6
      thresh= 7.669E-05 alpha_mix =  0.700 |ddv_scf|^2 =  1.647E-07

      iter #   3 total cpu time :    57.6 secs   av.it.:  10.2
      thresh= 4.058E-05 alpha_mix =  0.700 |ddv_scf|^2 =  1.693E-09

      iter #   4 total cpu time :    58.1 secs   av.it.:  10.3
      thresh= 4.114E-06 alpha_mix =  0.700 |ddv_scf|^2 =  6.833E-11

      iter #   5 total cpu time :    58.6 secs   av.it.:  10.5
      thresh= 8.266E-07 alpha_mix =  0.700 |ddv_scf|^2 =  3.904E-13

     End of self-consistent calculation

     Convergence has been achieved 


     Representation #  3 modes #   3  4

     Self-consistent Calculation

      iter #   1 total cpu time :    59.3 secs   av.it.:   5.2
      thresh= 1.000E-02 alpha_mix =  0.700 |ddv_scf|^2 =  1.040E-07

      iter #   2 total cpu time :    60.4 secs   av.it.:  11.7
      thresh= 3.225E-05 alpha_mix =  0.700 |ddv_scf|^2 =  1.436E-08

      iter #   3 total cpu time :    61.4 secs   av.it.:  11.3
      thresh= 1.198E-05 alpha_mix =  0.700 |ddv_scf|^2 =  2.417E-10

      iter #   4 total cpu time :    62.2 secs   av.it.:  10.8
      thresh= 1.555E-06 alpha_mix =  0.700 |ddv_scf|^2 =  5.771E-13

     End of self-consistent calculation

     Convergence has been achieved 


     Representation #  4 modes #   5  6

     Self-consistent Calculation

      iter #   1 total cpu time :    63.0 secs   av.it.:   5.3
      thresh= 1.000E-02 alpha_mix =  0.700 |ddv_scf|^2 =  9.533E-08

      iter #   2 total cpu time :    64.1 secs   av.it.:  11.6
      thresh= 3.088E-05 alpha_mix =  0.700 |ddv_scf|^2 =  1.282E-08

      iter #   3 total cpu time :    65.1 secs   av.it.:  11.4
      thresh= 1.132E-05 alpha_mix =  0.700 |ddv_scf|^2 =  2.468E-10

      iter #   4 total cpu time :    66.0 secs   av.it.:  11.1
      thresh= 1.571E-06 alpha_mix =  0.700 |ddv_scf|^2 =  6.163E-13

     End of self-consistent calculation

     Convergence has been achieved 

     Number of q in the star =    6
     List of q in the star:
          1   0.000000000   0.500000000   0.000000000
          2   0.000000000  -0.500000000   0.000000000
          3   0.500000000   0.000000000   0.000000000
          4   0.000000000   0.000000000   0.500000000
          5   0.000000000   0.000000000  -0.500000000
          6  -0.500000000   0.000000000   0.000000000

     Diagonalizing the dynamical matrix

     q = (    0.000000000   0.500000000   0.000000000 ) 

 **************************************************************************
     freq (    1) =       3.793831 [THz] =     126.548570 [cm-1]
     freq (    2) =       3.793831 [THz] =     126.548570 [cm-1]
     freq (    3) =       6.965542 [THz] =     232.345455 [cm-1]
     freq (    4) =      13.605458 [THz] =     453.829212 [cm-1]
     freq (    5) =      13.605458 [THz] =     453.829212 [cm-1]
     freq (    6) =      14.282176 [THz] =     476.402124 [cm-1]
 **************************************************************************

     Mode symmetry, C_4v (4mm)  point group:

     freq (  1 -  2) =        126.5  [cm-1]   --> E    G_5 D_5       
     freq (  3 -  3) =        232.3  [cm-1]   --> A_1  G_1 D_1       
     freq (  4 -  5) =        453.8  [cm-1]   --> E    G_5 D_5       
     freq (  6 -  6) =        476.4  [cm-1]   --> B_2  G_4 D_2'      

     Calculation of q =    0.7500000  -0.2500000   0.7500000

   Info: using nr1, nr2, nr3 values from input

   Info: using nr1, nr2, nr3 values from input

     Parallelization info
     --------------------
     sticks:   dense  smooth     PW     G-vecs:    dense   smooth      PW
     Min         222     109     42                 4369     1545     367
     Max         223     110     43                 4370     1547     368
     Sum         889     439    169                17477     6183    1471



     bravais-lattice index     =            2
     lattice parameter (alat)  =      10.3760  a.u.
     unit-cell volume          =     279.2736 (a.u.)^3
     number of atoms/cell      =            2
     number of atomic types    =            1
     number of electrons       =         8.00
     number of Kohn-Sham states=            4
     kinetic-energy cutoff     =      30.0000  Ry
     charge density cutoff     =     240.0000  Ry
     Exchange-correlation      = SLA  PW   PBE  PBE ( 1  4  3  4 0 0)

     celldm(1)=  10.376000  celldm(2)=   0.000000  celldm(3)=   0.000000
     celldm(4)=   0.000000  celldm(5)=   0.000000  celldm(6)=   0.000000

     crystal axes: (cart. coord. in units of alat)
               a(1) = (  -0.500000   0.000000   0.500000 )  
               a(2) = (   0.000000   0.500000   0.500000 )  
               a(3) = (  -0.500000   0.500000   0.000000 )  

     reciprocal axes: (cart. coord. in units 2 pi/alat)
               b(1) = ( -1.000000 -1.000000  1.000000 )  
               b(2) = (  1.000000  1.000000  1.000000 )  
               b(3) = ( -1.000000  1.000000 -1.000000 )  


     PseudoPot. # 1 for Si read from file:
     /home/s1333534/quantum_espresso/qe-6.1/pseudo/si_pbe_v1.uspp.F.UPF.txt
     MD5 check sum: a056efeee980c13900f22a371efd63c1
     Pseudo is Ultrasoft + core correction, Zval =  4.0
     Generated by new atomic code, or converted to UPF format
     Using radial grid of  899 points,  6 beta functions with: 
                l(1) =   0
                l(2) =   0
                l(3) =   1
                l(4) =   1
                l(5) =   2
                l(6) =   2
     Q(r) pseudized with  8 coefficients,  rinner =    0.900   0.900   0.900
                                                       0.900   0.900

     atomic species   valence    mass     pseudopotential
        Si             4.00    28.08600     Si( 1.00)

     48 Sym. Ops., with inversion, found



   Cartesian axes

     site n.     atom                  positions (alat units)
         1           Si  tau(   1) = (   0.0000000   0.0000000   0.0000000  )
         2           Si  tau(   2) = (   0.2500000   0.2500000   0.2500000  )

     number of k points=   288

     Number of k-points >= 100: set verbosity='high' to print them.

     Dense  grid:    17477 G-vectors     FFT dimensions: (  40,  40,  40)

     Smooth grid:     6183 G-vectors     FFT dimensions: (  25,  25,  25)

     Estimated max dynamical RAM per process >       1.79MB

     Estimated total allocated dynamical RAM >       7.17MB

     The potential is recalculated from file :
     ./_ph0/silicon.10.376.save/charge-density.dat

     Starting wfc are    8 atomic wfcs

     Band Structure Calculation
     Davidson diagonalization with overlap

     ethr =  1.25E-10,  avg # of iterations = 12.1

     total cpu time spent up to now is        7.0 secs

     End of band structure calculation

     Number of k-points >= 100: set verbosity='high' to print the bands.

     highest occupied level (ev):     5.5745

     Writing output data file silicon.10.376.save

                                                                                

     bravais-lattice index     =            2
     lattice parameter (alat)  =      10.3760  a.u.
     unit-cell volume          =     279.2736 (a.u.)^3
     number of atoms/cell      =            2
     number of atomic types    =            1
     kinetic-energy cut-off    =      30.0000  Ry
     charge density cut-off    =     240.0000  Ry
     convergence threshold     =      1.0E-12
     beta                      =       0.7000
     number of iterations used =            4
     Exchange-correlation      = SLA  PW   PBE  PBE ( 1  4  3  4 0 0)


     celldm(1)=   10.37600  celldm(2)=    0.00000  celldm(3)=    0.00000
     celldm(4)=    0.00000  celldm(5)=    0.00000  celldm(6)=    0.00000

     crystal axes: (cart. coord. in units of alat)
               a(1) = ( -0.5000  0.0000  0.5000 )  
               a(2) = (  0.0000  0.5000  0.5000 )  
               a(3) = ( -0.5000  0.5000  0.0000 )  

     reciprocal axes: (cart. coord. in units 2 pi/alat)
               b(1) = ( -1.0000 -1.0000  1.0000 )  
               b(2) = (  1.0000  1.0000  1.0000 )  
               b(3) = ( -1.0000  1.0000 -1.0000 )  


     Atoms inside the unit cell: 

     Cartesian axes

     site n.  atom      mass           positions (alat units)
        1     Si  28.0860   tau(    1) = (    0.00000    0.00000    0.00000  )
        2     Si  28.0860   tau(    2) = (    0.25000    0.25000    0.25000  )

     Computing dynamical matrix for 
                    q = (   0.7500000  -0.2500000   0.7500000 )

      2 Sym.Ops. (no q -> -q+G )


     G cutoff =  654.5027  (   4369 G-vectors)     FFT grid: ( 40, 40, 40)
     G cutoff =  327.2513  (   1547 G-vectors)  smooth grid: ( 25, 25, 25)
     number of k points=   288

     PseudoPot. # 1 for Si read from file:
     /home/s1333534/quantum_espresso/qe-6.1/pseudo/si_pbe_v1.uspp.F.UPF.txt
     MD5 check sum: a056efeee980c13900f22a371efd63c1
     Pseudo is Ultrasoft + core correction, Zval =  4.0
     Generated by new atomic code, or converted to UPF format
     Using radial grid of  899 points,  6 beta functions with: 
                l(1) =   0
                l(2) =   0
                l(3) =   1
                l(4) =   1
                l(5) =   2
                l(6) =   2
     Q(r) pseudized with  8 coefficients,  rinner =    0.900   0.900   0.900
                                                       0.900   0.900

     Mode symmetry, C_s (m)     point group:


     Atomic displacements:
     There are   6 irreducible representations

     Representation     1      1 modes -A'  To be done

     Representation     2      1 modes -A'  To be done

     Representation     3      1 modes -A'  To be done

     Representation     4      1 modes -A'  To be done

     Representation     5      1 modes -A''  To be done

     Representation     6      1 modes -A''  To be done



     Alpha used in Ewald sum =   2.5000
     PHONON       :  0m54.54s CPU     1m11.29s WALL



     Representation #  1 mode #   1

     Self-consistent Calculation

      iter #   1 total cpu time :    72.2 secs   av.it.:   5.7
      thresh= 1.000E-02 alpha_mix =  0.700 |ddv_scf|^2 =  7.550E-06

      iter #   2 total cpu time :    73.6 secs   av.it.:  10.7
      thresh= 2.748E-04 alpha_mix =  0.700 |ddv_scf|^2 =  2.032E-05

      iter #   3 total cpu time :    74.9 secs   av.it.:   9.4
      thresh= 4.508E-04 alpha_mix =  0.700 |ddv_scf|^2 =  1.359E-07

      iter #   4 total cpu time :    76.3 secs   av.it.:  10.1
      thresh= 3.686E-05 alpha_mix =  0.700 |ddv_scf|^2 =  2.757E-09

      iter #   5 total cpu time :    77.6 secs   av.it.:  10.7
      thresh= 5.250E-06 alpha_mix =  0.700 |ddv_scf|^2 =  4.657E-10

      iter #   6 total cpu time :    79.0 secs   av.it.:  10.6
      thresh= 2.158E-06 alpha_mix =  0.700 |ddv_scf|^2 =  7.550E-12

      iter #   7 total cpu time :    80.3 secs   av.it.:  10.8
      thresh= 2.748E-07 alpha_mix =  0.700 |ddv_scf|^2 =  2.927E-13

     End of self-consistent calculation

     Convergence has been achieved 


     Representation #  2 mode #   2

     Self-consistent Calculation

      iter #   1 total cpu time :    81.7 secs   av.it.:   5.8
      thresh= 1.000E-02 alpha_mix =  0.700 |ddv_scf|^2 =  1.349E-05

      iter #   2 total cpu time :    83.1 secs   av.it.:  10.6
      thresh= 3.672E-04 alpha_mix =  0.700 |ddv_scf|^2 =  3.931E-05

      iter #   3 total cpu time :    84.3 secs   av.it.:   9.2
      thresh= 6.270E-04 alpha_mix =  0.700 |ddv_scf|^2 =  9.329E-08

      iter #   4 total cpu time :    85.7 secs   av.it.:  10.4
      thresh= 3.054E-05 alpha_mix =  0.700 |ddv_scf|^2 =  3.119E-09

      iter #   5 total cpu time :    87.1 secs   av.it.:  10.6
      thresh= 5.585E-06 alpha_mix =  0.700 |ddv_scf|^2 =  6.343E-10

      iter #   6 total cpu time :    88.4 secs   av.it.:  10.5
      thresh= 2.519E-06 alpha_mix =  0.700 |ddv_scf|^2 =  6.684E-12

      iter #   7 total cpu time :    89.7 secs   av.it.:  10.7
      thresh= 2.585E-07 alpha_mix =  0.700 |ddv_scf|^2 =  2.428E-13

     End of self-consistent calculation

     Convergence has been achieved 


     Representation #  3 mode #   3

     Self-consistent Calculation

      iter #   1 total cpu time :    90.8 secs   av.it.:   5.7
      thresh= 1.000E-02 alpha_mix =  0.700 |ddv_scf|^2 =  1.056E-05

      iter #   2 total cpu time :    92.3 secs   av.it.:  10.7
      thresh= 3.250E-04 alpha_mix =  0.700 |ddv_scf|^2 =  2.888E-05

      iter #   3 total cpu time :    93.8 secs   av.it.:   9.2
      thresh= 5.374E-04 alpha_mix =  0.700 |ddv_scf|^2 =  1.623E-07

      iter #   4 total cpu time :    95.2 secs   av.it.:  10.1
      thresh= 4.029E-05 alpha_mix =  0.700 |ddv_scf|^2 =  3.177E-09

      iter #   5 total cpu time :    96.6 secs   av.it.:  10.7
      thresh= 5.636E-06 alpha_mix =  0.700 |ddv_scf|^2 =  6.236E-10

      iter #   6 total cpu time :    98.0 secs   av.it.:  10.5
      thresh= 2.497E-06 alpha_mix =  0.700 |ddv_scf|^2 =  4.654E-12

      iter #   7 total cpu time :    99.3 secs   av.it.:  10.7
      thresh= 2.157E-07 alpha_mix =  0.700 |ddv_scf|^2 =  1.377E-13

     End of self-consistent calculation

     Convergence has been achieved 


     Representation #  4 mode #   4

     Self-consistent Calculation

      iter #   1 total cpu time :   100.4 secs   av.it.:   5.5
      thresh= 1.000E-02 alpha_mix =  0.700 |ddv_scf|^2 =  4.619E-06

      iter #   2 total cpu time :   101.8 secs   av.it.:  10.9
      thresh= 2.149E-04 alpha_mix =  0.700 |ddv_scf|^2 =  9.870E-06

      iter #   3 total cpu time :   103.3 secs   av.it.:   9.7
      thresh= 3.142E-04 alpha_mix =  0.700 |ddv_scf|^2 =  2.134E-07

      iter #   4 total cpu time :   104.8 secs   av.it.:  10.0
      thresh= 4.620E-05 alpha_mix =  0.700 |ddv_scf|^2 =  2.724E-09

      iter #   5 total cpu time :   106.3 secs   av.it.:  10.7
      thresh= 5.220E-06 alpha_mix =  0.700 |ddv_scf|^2 =  5.092E-10

      iter #   6 total cpu time :   107.6 secs   av.it.:  10.5
      thresh= 2.256E-06 alpha_mix =  0.700 |ddv_scf|^2 =  3.162E-12

      iter #   7 total cpu time :   109.0 secs   av.it.:  10.8
      thresh= 1.778E-07 alpha_mix =  0.700 |ddv_scf|^2 =  1.503E-13

     End of self-consistent calculation

     Convergence has been achieved 


     Representation #  5 mode #   5

     Self-consistent Calculation

      iter #   1 total cpu time :   110.1 secs   av.it.:   5.2
      thresh= 1.000E-02 alpha_mix =  0.700 |ddv_scf|^2 =  4.805E-07

      iter #   2 total cpu time :   111.7 secs   av.it.:  10.4
      thresh= 6.932E-05 alpha_mix =  0.700 |ddv_scf|^2 =  7.851E-08

      iter #   3 total cpu time :   113.0 secs   av.it.:  10.2
      thresh= 2.802E-05 alpha_mix =  0.700 |ddv_scf|^2 =  1.046E-09

      iter #   4 total cpu time :   114.4 secs   av.it.:   9.8
      thresh= 3.234E-06 alpha_mix =  0.700 |ddv_scf|^2 =  2.479E-12

      iter #   5 total cpu time :   115.7 secs   av.it.:  10.3
      thresh= 1.575E-07 alpha_mix =  0.700 |ddv_scf|^2 =  7.061E-14

     End of self-consistent calculation

     Convergence has been achieved 


     Representation #  6 mode #   6

     Self-consistent Calculation

      iter #   1 total cpu time :   116.8 secs   av.it.:   5.2
      thresh= 1.000E-02 alpha_mix =  0.700 |ddv_scf|^2 =  4.805E-07

      iter #   2 total cpu time :   118.2 secs   av.it.:  10.4
[...]
        k(   59) = (  -0.8750000   0.1250000  -0.1250000), wk =   0.0625000
        k(   60) = (  -1.3750000  -0.8750000  -0.1250000), wk =   0.0000000
        k(   61) = (  -1.1250000   0.3750000  -0.3750000), wk =   0.0625000
        k(   62) = (  -1.6250000  -0.6250000  -0.3750000), wk =   0.0000000
        k(   63) = (  -0.3750000   0.3750000   1.1250000), wk =   0.0625000
        k(   64) = (  -0.8750000  -0.6250000   1.1250000), wk =   0.0000000

     Dense  grid:    17477 G-vectors     FFT dimensions: (  40,  40,  40)

     Smooth grid:     6183 G-vectors     FFT dimensions: (  25,  25,  25)

     Estimated max dynamical RAM per process >       1.79MB

     Estimated total allocated dynamical RAM >       7.17MB

     The potential is recalculated from file :
     ./_ph0/silicon.10.376.save/charge-density.dat

     Starting wfc are    8 atomic wfcs

     Band Structure Calculation
     Davidson diagonalization with overlap

     ethr =  1.25E-10,  avg # of iterations = 12.1

     total cpu time spent up to now is       10.8 secs

     End of band structure calculation

          k =-0.1250 0.1250 0.1250 (   785 PWs)   bands (ev):

    -5.6826   4.2645   5.5745   5.5745

          k =-0.6250-0.8750 0.1250 (   764 PWs)   bands (ev):

    -2.5237  -0.9947   1.9358   2.9979

          k =-0.3750 0.3750-0.1250 (   785 PWs)   bands (ev):

    -4.6681   1.2932   3.6103   5.0977

          k =-0.8750-0.6250-0.1250 (   764 PWs)   bands (ev):

    -2.5237  -0.9947   1.9358   2.9979

          k = 0.3750-0.3750 0.6250 (   776 PWs)   bands (ev):

    -3.5457  -0.7572   3.6252   4.3366

          k =-0.1250-1.3750 0.6250 (   775 PWs)   bands (ev):

    -3.0554  -0.6858   1.9887   4.0240

          k = 0.1250-0.1250 0.3750 (   785 PWs)   bands (ev):

    -5.1607   2.6543   4.5799   4.6367

          k =-0.3750-1.1250 0.3750 (   775 PWs)   bands (ev):

    -3.0554  -0.6858   1.9887   4.0240

          k =-0.1250 0.6250 0.1250 (   777 PWs)   bands (ev):

    -4.1412   0.9484   3.2687   3.7157

          k =-0.6250-0.3750 0.1250 (   780 PWs)   bands (ev):

    -3.7319   0.0919   2.6322   3.9875

          k = 0.6250-0.1250 0.8750 (   764 PWs)   bands (ev):

    -2.5237  -0.9947   1.9358   2.9979

          k = 0.1250-1.1250 0.8750 (   772 PWs)   bands (ev):

    -2.6865  -0.9001   2.5368   3.2537

          k = 0.3750 0.1250 0.6250 (   780 PWs)   bands (ev):

    -3.7319   0.0919   2.6322   3.9875

          k =-0.1250-0.8750 0.6250 (   764 PWs)   bands (ev):

    -2.5237  -0.9947   1.9358   2.9979

          k =-0.1250-0.8750 0.1250 (   772 PWs)   bands (ev):

    -2.6865  -0.9001   2.5368   3.2537

          k =-0.6250-1.8750 0.1250 (   777 PWs)   bands (ev):

    -4.1412   0.9484   3.2687   3.7157

          k =-0.3750 0.3750 0.3750 (   775 PWs)   bands (ev):

    -4.2414   0.0226   4.7945   4.7945

          k =-0.8750-0.6250 0.3750 (   780 PWs)   bands (ev):

    -3.7319   0.0919   2.6322   3.9875

          k = 0.3750-0.3750 1.1250 (   775 PWs)   bands (ev):

    -3.0554  -0.6858   1.9887   4.0240

          k =-0.1250-1.3750 1.1250 (   764 PWs)   bands (ev):

    -2.5237  -0.9947   1.9358   2.9979

          k = 0.1250-0.3750 0.3750 (   785 PWs)   bands (ev):

    -4.6681   1.2932   3.6103   5.0977

          k =-0.3750-1.3750 0.3750 (   776 PWs)   bands (ev):

    -3.5457  -0.7572   3.6252   4.3366

          k = 0.3750-0.3750-0.1250 (   785 PWs)   bands (ev):

    -4.6681   1.2932   3.6103   5.0977

          k =-0.1250-1.3750-0.1250 (   777 PWs)   bands (ev):

    -4.1412   0.9484   3.2687   3.7157

          k =-0.6250 0.3750-0.3750 (   776 PWs)   bands (ev):

    -3.5457  -0.7572   3.6252   4.3366

          k =-1.1250-0.6250-0.3750 (   780 PWs)   bands (ev):

    -3.7319   0.0919   2.6322   3.9875

          k =-0.3750 0.3750 0.6250 (   776 PWs)   bands (ev):

    -3.5457  -0.7572   3.6252   4.3366

          k =-0.8750-0.6250 0.6250 (   785 PWs)   bands (ev):

    -4.6681   1.2932   3.6103   5.0977

          k =-0.3750 0.1250-0.1250 (   785 PWs)   bands (ev):

    -5.1607   2.6543   4.5799   4.6367

          k =-0.8750-0.8750-0.1250 (   772 PWs)   bands (ev):

    -2.6865  -0.9001   2.5368   3.2537

          k =-0.1250 0.1250 0.3750 (   785 PWs)   bands (ev):

    -5.1607   2.6543   4.5799   4.6367

          k =-0.6250-0.8750 0.3750 (   780 PWs)   bands (ev):

    -3.7319   0.0919   2.6322   3.9875

          k = 0.1250 0.6250-0.1250 (   777 PWs)   bands (ev):

    -4.1412   0.9484   3.2687   3.7157

          k =-0.3750-0.3750-0.1250 (   785 PWs)   bands (ev):

    -4.6681   1.2932   3.6103   5.0977

          k = 0.6250 0.1250-0.1250 (   777 PWs)   bands (ev):

    -4.1412   0.9484   3.2687   3.7157

          k = 0.1250-0.8750-0.1250 (   772 PWs)   bands (ev):

    -2.6865  -0.9001   2.5368   3.2537

          k =-0.8750 0.1250-0.6250 (   764 PWs)   bands (ev):

    -2.5237  -0.9947   1.9358   2.9979

          k =-1.3750-0.8750-0.6250 (   785 PWs)   bands (ev):

    -4.6681   1.2932   3.6103   5.0977

          k = 0.8750-0.1250 0.6250 (   764 PWs)   bands (ev):

    -2.5237  -0.9947   1.9358   2.9979

          k = 0.3750-1.1250 0.6250 (   780 PWs)   bands (ev):

    -3.7319   0.0919   2.6322   3.9875

          k =-0.6250 0.1250 0.8750 (   764 PWs)   bands (ev):

    -2.5237  -0.9947   1.9358   2.9979

          k =-1.1250-0.8750 0.8750 (   785 PWs)   bands (ev):

    -5.6826   4.2645   5.5745   5.5745

          k =-0.1250 0.8750 0.6250 (   764 PWs)   bands (ev):

    -2.5237  -0.9947   1.9358   2.9979

          k =-0.6250-0.1250 0.6250 (   775 PWs)   bands (ev):

    -3.0554  -0.6858   1.9887   4.0240

          k = 0.1250 0.8750-0.6250 (   764 PWs)   bands (ev):

    -2.5237  -0.9947   1.9358   2.9979

          k =-0.3750-0.1250-0.6250 (   780 PWs)   bands (ev):

    -3.7319   0.0919   2.6322   3.9875

          k =-0.6250-0.1250-0.3750 (   780 PWs)   bands (ev):

    -3.7319   0.0919   2.6322   3.9875

          k =-1.1250-1.1250-0.3750 (   777 PWs)   bands (ev):

    -4.1412   0.9484   3.2687   3.7157

          k = 0.6250 0.1250 0.3750 (   780 PWs)   bands (ev):

    -3.7319   0.0919   2.6322   3.9875

          k = 0.1250-0.8750 0.3750 (   764 PWs)   bands (ev):

    -2.5237  -0.9947   1.9358   2.9979

          k =-0.3750-0.1250 0.6250 (   780 PWs)   bands (ev):

    -3.7319   0.0919   2.6322   3.9875

          k =-0.8750-1.1250 0.6250 (   785 PWs)   bands (ev):

    -5.1607   2.6543   4.5799   4.6367

          k = 0.1250 0.6250 0.3750 (   780 PWs)   bands (ev):

    -3.7319   0.0919   2.6322   3.9875

          k =-0.3750-0.3750 0.3750 (   775 PWs)   bands (ev):

    -4.2414   0.0226   4.7945   4.7945

          k =-0.1250 0.6250-0.3750 (   780 PWs)   bands (ev):

    -3.7319   0.0919   2.6322   3.9875

          k =-0.6250-0.3750-0.3750 (   776 PWs)   bands (ev):

    -3.5457  -0.7572   3.6252   4.3366

          k = 0.1250-0.8750-0.1250 (   772 PWs)   bands (ev):

    -2.6865  -0.9001   2.5368   3.2537

          k =-0.3750-1.8750-0.1250 (   785 PWs)   bands (ev):

    -5.1607   2.6543   4.5799   4.6367

          k =-0.8750 0.1250-0.1250 (   772 PWs)   bands (ev):

    -2.6865  -0.9001   2.5368   3.2537

          k =-1.3750-0.8750-0.1250 (   764 PWs)   bands (ev):

    -2.5237  -0.9947   1.9358   2.9979

          k =-1.1250 0.3750-0.3750 (   775 PWs)   bands (ev):

    -3.0554  -0.6858   1.9887   4.0240

          k =-1.6250-0.6250-0.3750 (   776 PWs)   bands (ev):

    -3.5457  -0.7572   3.6252   4.3366

          k =-0.3750 0.3750 1.1250 (   775 PWs)   bands (ev):

    -3.0554  -0.6858   1.9887   4.0240

          k =-0.8750-0.6250 1.1250 (   785 PWs)   bands (ev):

    -5.1607   2.6543   4.5799   4.6367

     highest occupied level (ev):     5.5745

     Writing output data file silicon.10.376.save

                                                                                

     bravais-lattice index     =            2
     lattice parameter (alat)  =      10.3760  a.u.
     unit-cell volume          =     279.2736 (a.u.)^3
     number of atoms/cell      =            2
     number of atomic types    =            1
     kinetic-energy cut-off    =      30.0000  Ry
     charge density cut-off    =     240.0000  Ry
     convergence threshold     =      1.0E-12
     beta                      =       0.7000
     number of iterations used =            4
     Exchange-correlation      = SLA  PW   PBE  PBE ( 1  4  3  4 0 0)


     celldm(1)=   10.37600  celldm(2)=    0.00000  celldm(3)=    0.00000
     celldm(4)=    0.00000  celldm(5)=    0.00000  celldm(6)=    0.00000

     crystal axes: (cart. coord. in units of alat)
               a(1) = ( -0.5000  0.0000  0.5000 )  
               a(2) = (  0.0000  0.5000  0.5000 )  
               a(3) = ( -0.5000  0.5000  0.0000 )  

     reciprocal axes: (cart. coord. in units 2 pi/alat)
               b(1) = ( -1.0000 -1.0000  1.0000 )  
               b(2) = (  1.0000  1.0000  1.0000 )  
               b(3) = ( -1.0000  1.0000 -1.0000 )  


     Atoms inside the unit cell: 

     Cartesian axes

     site n.  atom      mass           positions (alat units)
        1     Si  28.0860   tau(    1) = (    0.00000    0.00000    0.00000  )
        2     Si  28.0860   tau(    2) = (    0.25000    0.25000    0.25000  )

     Computing dynamical matrix for 
                    q = (  -0.5000000  -1.0000000   0.0000000 )

      8 Sym.Ops. (no q -> -q+G )


     G cutoff =  654.5027  (   4369 G-vectors)     FFT grid: ( 40, 40, 40)
     G cutoff =  327.2513  (   1546 G-vectors)  smooth grid: ( 25, 25, 25)
     number of k points=    64

     PseudoPot. # 1 for Si read from file:
     /home/s1333534/quantum_espresso/qe-6.1/pseudo/si_pbe_v1.uspp.F.UPF.txt
     MD5 check sum: a056efeee980c13900f22a371efd63c1
     Pseudo is Ultrasoft + core correction, Zval =  4.0
     Generated by new atomic code, or converted to UPF format
     Using radial grid of  899 points,  6 beta functions with: 
                l(1) =   0
                l(2) =   0
                l(3) =   1
                l(4) =   1
                l(5) =   2
                l(6) =   2
     Q(r) pseudized with  8 coefficients,  rinner =    0.900   0.900   0.900
                                                       0.900   0.900


     Atomic displacements:
     There are   3 irreducible representations

     Representation     1      2 modes -  To be done

     Representation     2      2 modes -  To be done

     Representation     3      2 modes -  To be done



     Alpha used in Ewald sum =   2.5000
     PHONON       :  2m 8.65s CPU     2m45.97s WALL



     Representation #  1 modes #   1  2

     Self-consistent Calculation

      iter #   1 total cpu time :   166.7 secs   av.it.:   5.7
      thresh= 1.000E-02 alpha_mix =  0.700 |ddv_scf|^2 =  7.784E-07

      iter #   2 total cpu time :   167.7 secs   av.it.:  11.8
      thresh= 8.823E-05 alpha_mix =  0.700 |ddv_scf|^2 =  4.396E-07

      iter #   3 total cpu time :   168.5 secs   av.it.:  11.3
      thresh= 6.630E-05 alpha_mix =  0.700 |ddv_scf|^2 =  4.269E-10

      iter #   4 total cpu time :   169.4 secs   av.it.:  11.1
      thresh= 2.066E-06 alpha_mix =  0.700 |ddv_scf|^2 =  1.929E-12

      iter #   5 total cpu time :   170.1 secs   av.it.:  11.3
      thresh= 1.389E-07 alpha_mix =  0.700 |ddv_scf|^2 =  5.072E-14

     End of self-consistent calculation

     Convergence has been achieved 


     Representation #  2 modes #   3  4

     Self-consistent Calculation

      iter #   1 total cpu time :   170.9 secs   av.it.:   5.6
      thresh= 1.000E-02 alpha_mix =  0.700 |ddv_scf|^2 =  1.214E-06

      iter #   2 total cpu time :   172.0 secs   av.it.:  11.8
      thresh= 1.102E-04 alpha_mix =  0.700 |ddv_scf|^2 =  1.668E-06

      iter #   3 total cpu time :   172.8 secs   av.it.:  11.0
      thresh= 1.291E-04 alpha_mix =  0.700 |ddv_scf|^2 =  5.119E-10

      iter #   4 total cpu time :   173.7 secs   av.it.:  11.1
      thresh= 2.263E-06 alpha_mix =  0.700 |ddv_scf|^2 =  8.592E-12

      iter #   5 total cpu time :   174.4 secs   av.it.:  11.3
      thresh= 2.931E-07 alpha_mix =  0.700 |ddv_scf|^2 =  1.357E-13

     End of self-consistent calculation

     Convergence has been achieved 


     Representation #  3 modes #   5  6

     Self-consistent Calculation

      iter #   1 total cpu time :   175.2 secs   av.it.:   5.3
      thresh= 1.000E-02 alpha_mix =  0.700 |ddv_scf|^2 =  3.164E-07

      iter #   2 total cpu time :   176.1 secs   av.it.:  11.9
      thresh= 5.625E-05 alpha_mix =  0.700 |ddv_scf|^2 =  1.845E-07

      iter #   3 total cpu time :   177.0 secs   av.it.:  11.2
      thresh= 4.295E-05 alpha_mix =  0.700 |ddv_scf|^2 =  3.689E-10

      iter #   4 total cpu time :   177.8 secs   av.it.:  11.1
      thresh= 1.921E-06 alpha_mix =  0.700 |ddv_scf|^2 =  4.438E-12

      iter #   5 total cpu time :   178.6 secs   av.it.:  11.2
      thresh= 2.107E-07 alpha_mix =  0.700 |ddv_scf|^2 =  6.039E-14

     End of self-consistent calculation

     Convergence has been achieved 

     Number of q in the star =    6
     List of q in the star:
          1  -0.500000000  -1.000000000   0.000000000
          2   0.000000000   1.000000000   0.500000000
          3   0.000000000  -1.000000000  -0.500000000
          4   0.500000000   1.000000000   0.000000000
          5  -1.000000000  -0.500000000   0.000000000
          6   0.000000000  -0.500000000  -1.000000000

     Diagonalizing the dynamical matrix

     q = (   -0.500000000  -1.000000000   0.000000000 ) 

 **************************************************************************
     freq (    1) =       6.050363 [THz] =     201.818380 [cm-1]
     freq (    2) =       6.050363 [THz] =     201.818380 [cm-1]
     freq (    3) =      10.175793 [THz] =     339.427922 [cm-1]
     freq (    4) =      10.175793 [THz] =     339.427922 [cm-1]
     freq (    5) =      13.308980 [THz] =     443.939789 [cm-1]
     freq (    6) =      13.308980 [THz] =     443.939789 [cm-1]
 **************************************************************************

     init_run     :      1.26s CPU      1.32s WALL (       7 calls)
     electrons    :      7.43s CPU      7.98s WALL (       7 calls)

     Called by init_run:
     wfcinit      :      0.00s CPU      0.02s WALL (       7 calls)
     potinit      :      0.10s CPU      0.12s WALL (       7 calls)

     Called by electrons:
     c_bands      :      7.43s CPU      7.97s WALL (       7 calls)
     v_of_rho     :      0.09s CPU      0.09s WALL (       8 calls)
     newd         :      0.12s CPU      0.12s WALL (       8 calls)

     Called by c_bands:
     init_us_2    :      1.64s CPU      1.59s WALL (   15896 calls)
     cegterg      :      6.21s CPU      6.66s WALL (     796 calls)

     Called by sum_band:

     Called by *egterg:
     h_psi        :     71.19s CPU     76.29s WALL (  154853 calls)
     s_psi        :      5.89s CPU      7.02s WALL (  311964 calls)
     g_psi        :      0.05s CPU      0.07s WALL (    9666 calls)
     cdiaghg      :      0.57s CPU      0.56s WALL (   10462 calls)

     Called by h_psi:
     h_psi:pot    :     70.76s CPU     75.76s WALL (  154853 calls)
     h_psi:calbec :      3.54s CPU      4.15s WALL (  154853 calls)
     vloc_psi     :     62.53s CPU     67.40s WALL (  154853 calls)
     add_vuspsi   :      4.30s CPU      3.73s WALL (  154853 calls)

     General routines
     calbec       :      8.12s CPU      8.70s WALL (  346272 calls)
     fft          :      1.84s CPU      1.91s WALL (    5233 calls)
     ffts         :      0.21s CPU      0.23s WALL (    3316 calls)
     fftw         :     63.91s CPU     68.14s WALL ( 1385552 calls)
     interpolate  :      0.32s CPU      0.34s WALL (     568 calls)
     davcio       :      0.35s CPU      1.30s WALL (   69130 calls)

     Parallel routines
     fft_scatter  :     15.08s CPU     19.71s WALL ( 1394101 calls)

     PHONON       :  2m18.44s CPU     2m59.13s WALL

     INITIALIZATION: 
     phq_setup    :      0.30s CPU      0.49s WALL (       8 calls)
     phq_init     :      6.90s CPU      7.43s WALL (       8 calls)

     phq_init     :      6.90s CPU      7.43s WALL (       8 calls)
     set_drhoc    :      1.86s CPU      1.86s WALL (      24 calls)
     init_vloc    :      0.03s CPU      0.03s WALL (       8 calls)
     init_us_1    :      0.97s CPU      0.97s WALL (       8 calls)
     newd         :      0.12s CPU      0.12s WALL (       8 calls)
     dvanqq       :      1.18s CPU      1.21s WALL (       8 calls)
     drho         :      2.64s CPU      2.71s WALL (       8 calls)

     DYNAMICAL MATRIX:
     dynmat0      :      1.76s CPU      1.94s WALL (       8 calls)
     phqscf       :    117.17s CPU    151.07s WALL (       8 calls)
     dynmatrix    :      0.01s CPU      0.26s WALL (       8 calls)

     phqscf       :    117.17s CPU    151.07s WALL (       8 calls)
     solve_linter :    116.30s CPU    147.85s WALL (      32 calls)
     drhodv       :      0.58s CPU      0.61s WALL (      32 calls)

     dynmat0      :      1.76s CPU      1.94s WALL (       8 calls)
     dynmat_us    :      0.39s CPU      0.39s WALL (       8 calls)
     d2ionq       :      0.04s CPU      0.04s WALL (       8 calls)
     dynmatcc     :      1.32s CPU      1.32s WALL (       8 calls)

     dynmat_us    :      0.39s CPU      0.39s WALL (       8 calls)
     addusdynmat  :      0.00s CPU      0.00s WALL (       8 calls)

     phqscf       :    117.17s CPU    151.07s WALL (       8 calls)
     solve_linter :    116.30s CPU    147.85s WALL (      32 calls)

     solve_linter :    116.30s CPU    147.85s WALL (      32 calls)
     dvqpsi_us    :      2.15s CPU      2.29s WALL (    2508 calls)
     ortho        :      0.94s CPU      1.07s WALL (   13486 calls)
     cgsolve      :     78.97s CPU     85.86s WALL (   13486 calls)
     incdrhoscf   :      6.32s CPU      6.95s WALL (   13486 calls)
     addusddens   :      7.15s CPU      7.22s WALL (     200 calls)
     vpsifft      :      4.45s CPU      4.87s WALL (   10858 calls)
     dv_of_drho   :      1.76s CPU      1.81s WALL (     254 calls)
     mix_pot      :      0.56s CPU     12.68s WALL (     173 calls)
     psymdvscf    :      5.89s CPU      5.98s WALL (     168 calls)
     newdq        :      7.71s CPU      7.74s WALL (     173 calls)
     adddvscf     :      0.46s CPU      0.44s WALL (   10978 calls)
     drhodvus     :      0.01s CPU      0.02s WALL (      32 calls)

     dvqpsi_us    :      2.15s CPU      2.29s WALL (    2508 calls)
     dvqpsi_us_on :      0.92s CPU      0.95s WALL (    2508 calls)

     cgsolve      :     78.97s CPU     85.86s WALL (   13486 calls)
     ch_psi       :     77.80s CPU     83.97s WALL (  143595 calls)

     ch_psi       :     77.80s CPU     83.97s WALL (  143595 calls)
     h_psi        :     71.19s CPU     76.29s WALL (  154853 calls)
     last         :      9.27s CPU      9.44s WALL (  143595 calls)

     h_psi        :     71.19s CPU     76.29s WALL (  154853 calls)
     add_vuspsi   :      4.30s CPU      3.73s WALL (  154853 calls)

     incdrhoscf   :      6.32s CPU      6.95s WALL (   13486 calls)
     addusdbec    :      0.50s CPU      0.54s WALL (   15934 calls)

     drhodvus     :      0.01s CPU      0.02s WALL (      32 calls)

      General routines
     calbec       :      8.12s CPU      8.70s WALL (  346272 calls)
     fft          :      1.84s CPU      1.91s WALL (    5233 calls)
     ffts         :      0.21s CPU      0.23s WALL (    3316 calls)
     fftw         :     63.91s CPU     68.14s WALL ( 1385552 calls)
     davcio       :      0.35s CPU      1.30s WALL (   69130 calls)
     write_rec    :      0.22s CPU     13.75s WALL (     205 calls)


     PHONON       :  2m18.44s CPU     2m59.13s WALL


   This run was terminated on:  15:33:43  10Nov2017            

=------------------------------------------------------------------------------=
   JOB DONE.
=------------------------------------------------------------------------------=
