
     Program PWSCF v.6.1 (svn rev. 13369) starts on 10Nov2017 at 14: 5:53 

     This program is part of the open-source Quantum ESPRESSO suite
     for quantum simulation of materials; please cite
         "P. Giannozzi et al., J. Phys.:Condens. Matter 21 395502 (2009);
          URL http://www.quantum-espresso.org", 
     in publications or presentations arising from this work. More details at
     http://www.quantum-espresso.org/quote

     Parallel version (MPI), running on     4 processors
     R & G space division:  proc/nbgrp/npool/nimage =       4
     Waiting for input...
     Reading input from standard input
     Message from routine read_cards :
     DEPRECATED: no units specified in ATOMIC_POSITIONS card
     Message from routine read_cards :
     ATOMIC_POSITIONS: units set to alat

     Current dimensions of program PWSCF are:
     Max number of different atomic species (ntypx) = 10
     Max number of k-points (npk) =  40000
     Max angular momentum in pseudopotentials (lmaxx) =  3

     Subspace diagonalization in iterative solution of the eigenvalue problem:
     a serial algorithm will be used


     Parallelization info
     --------------------
     sticks:   dense  smooth     PW     G-vecs:    dense   smooth      PW
     Min         217     108     37                 4240     1495     284
     Max         219     109     38                 4241     1498     285
     Sum         871     433    151                16961     5985    1139



     bravais-lattice index     =            2
     lattice parameter (alat)  =      10.2860  a.u.
     unit-cell volume          =     272.0693 (a.u.)^3
     number of atoms/cell      =            2
     number of atomic types    =            1
     number of electrons       =         8.00
     number of Kohn-Sham states=            4
     kinetic-energy cutoff     =      30.0000  Ry
     charge density cutoff     =     240.0000  Ry
     convergence threshold     =      1.0E-08
     mixing beta               =       0.7000
     number of iterations used =            8  plain     mixing
     Exchange-correlation      = SLA  PW   PBE  PBE ( 1  4  3  4 0 0)

     celldm(1)=  10.286000  celldm(2)=   0.000000  celldm(3)=   0.000000
     celldm(4)=   0.000000  celldm(5)=   0.000000  celldm(6)=   0.000000

     crystal axes: (cart. coord. in units of alat)
               a(1) = (  -0.500000   0.000000   0.500000 )  
               a(2) = (   0.000000   0.500000   0.500000 )  
               a(3) = (  -0.500000   0.500000   0.000000 )  

     reciprocal axes: (cart. coord. in units 2 pi/alat)
               b(1) = ( -1.000000 -1.000000  1.000000 )  
               b(2) = (  1.000000  1.000000  1.000000 )  
               b(3) = ( -1.000000  1.000000 -1.000000 )  


     PseudoPot. # 1 for Si read from file:
     /home/s1333534/quantum_espresso/qe-6.1/pseudo/si_pbe_v1.uspp.F.UPF.txt
     MD5 check sum: a056efeee980c13900f22a371efd63c1
     Pseudo is Ultrasoft + core correction, Zval =  4.0
     Generated by new atomic code, or converted to UPF format
     Using radial grid of  899 points,  6 beta functions with: 
                l(1) =   0
                l(2) =   0
                l(3) =   1
                l(4) =   1
                l(5) =   2
                l(6) =   2
     Q(r) pseudized with  8 coefficients,  rinner =    0.900   0.900   0.900
                                                       0.900   0.900

     atomic species   valence    mass     pseudopotential
        Si             4.00    28.08600     Si( 1.00)

     48 Sym. Ops., with inversion, found (24 have fractional translation)



   Cartesian axes

     site n.     atom                  positions (alat units)
         1           Si  tau(   1) = (   0.0000000   0.0000000   0.0000000  )
         2           Si  tau(   2) = (   0.2500000   0.2500000   0.2500000  )

     number of k points=    10
                       cart. coord. in units 2pi/alat
        k(    1) = (  -0.1250000   0.1250000   0.1250000), wk =   0.0625000
        k(    2) = (  -0.3750000   0.3750000  -0.1250000), wk =   0.1875000
        k(    3) = (   0.3750000  -0.3750000   0.6250000), wk =   0.1875000
        k(    4) = (   0.1250000  -0.1250000   0.3750000), wk =   0.1875000
        k(    5) = (  -0.1250000   0.6250000   0.1250000), wk =   0.1875000
        k(    6) = (   0.6250000  -0.1250000   0.8750000), wk =   0.3750000
        k(    7) = (   0.3750000   0.1250000   0.6250000), wk =   0.3750000
        k(    8) = (  -0.1250000  -0.8750000   0.1250000), wk =   0.1875000
        k(    9) = (  -0.3750000   0.3750000   0.3750000), wk =   0.0625000
        k(   10) = (   0.3750000  -0.3750000   1.1250000), wk =   0.1875000

     Dense  grid:    16961 G-vectors     FFT dimensions: (  36,  36,  36)

     Smooth grid:     5985 G-vectors     FFT dimensions: (  25,  25,  25)

     Estimated max dynamical RAM per process >       2.81MB

     Estimated total allocated dynamical RAM >      11.24MB

     Initial potential from superposition of free atoms

     starting charge    7.99866, renormalised to    8.00000
     Starting wfc are    8 randomized atomic wfcs

     total cpu time spent up to now is        0.3 secs

     per-process dynamical memory:     9.4 Mb

     Self-consistent Calculation

     iteration #  1     ecut=    30.00 Ry     beta=0.70
     Davidson diagonalization with overlap
     ethr =  1.00E-02,  avg # of iterations =  2.0

     Threshold (ethr) on eigenvalues was too large:
     Diagonalizing with lowered threshold

     Davidson diagonalization with overlap
     ethr =  6.94E-04,  avg # of iterations =  1.0

     total cpu time spent up to now is        0.4 secs

     total energy              =     -19.19078639 Ry
     Harris-Foulkes estimate   =     -19.20383918 Ry
     estimated scf accuracy    <       0.05499051 Ry

     iteration #  2     ecut=    30.00 Ry     beta=0.70
     Davidson diagonalization with overlap
     ethr =  6.87E-04,  avg # of iterations =  1.0

     total cpu time spent up to now is        0.5 secs

     total energy              =     -19.19264638 Ry
     Harris-Foulkes estimate   =     -19.19281512 Ry
     estimated scf accuracy    <       0.00245376 Ry

     iteration #  3     ecut=    30.00 Ry     beta=0.70
     Davidson diagonalization with overlap
     ethr =  3.07E-05,  avg # of iterations =  2.2

     total cpu time spent up to now is        0.5 secs

     total energy              =     -19.19298459 Ry
     Harris-Foulkes estimate   =     -19.19299715 Ry
     estimated scf accuracy    <       0.00004318 Ry

     iteration #  4     ecut=    30.00 Ry     beta=0.70
     Davidson diagonalization with overlap
     ethr =  5.40E-07,  avg # of iterations =  3.4

     total cpu time spent up to now is        0.6 secs

     total energy              =     -19.19302351 Ry
     Harris-Foulkes estimate   =     -19.19302419 Ry
     estimated scf accuracy    <       0.00000269 Ry

     iteration #  5     ecut=    30.00 Ry     beta=0.70
     Davidson diagonalization with overlap
     ethr =  3.36E-08,  avg # of iterations =  2.1

     total cpu time spent up to now is        0.7 secs

     End of self-consistent calculation

          k =-0.1250 0.1250 0.1250 (   746 PWs)   bands (ev):

    -5.5868   4.5261   5.8352   5.8352

          k =-0.3750 0.3750-0.1250 (   757 PWs)   bands (ev):

    -4.5476   1.5114   3.8265   5.3517

          k = 0.3750-0.3750 0.6250 (   755 PWs)   bands (ev):

    -3.3899  -0.5955   3.8537   4.5695

          k = 0.1250-0.1250 0.3750 (   757 PWs)   bands (ev):

    -5.0528   2.9040   4.8134   4.8853

          k =-0.1250 0.6250 0.1250 (   757 PWs)   bands (ev):

    -4.0091   1.1893   3.4706   3.9293

          k = 0.6250-0.1250 0.8750 (   749 PWs)   bands (ev):

    -2.3460  -0.7917   2.0938   3.1855

          k = 0.3750 0.1250 0.6250 (   756 PWs)   bands (ev):

    -3.5870   0.2984   2.8234   4.2068

          k =-0.1250-0.8750 0.1250 (   757 PWs)   bands (ev):

    -2.5191  -0.6914   2.7130   3.4574

          k =-0.3750 0.3750 0.3750 (   763 PWs)   bands (ev):

    -4.1080   0.2009   5.0409   5.0409

          k = 0.3750-0.3750 1.1250 (   757 PWs)   bands (ev):

    -2.8886  -0.4964   2.1580   4.2479

     highest occupied level (ev):     5.8352

!    total energy              =     -19.19302388 Ry
     Harris-Foulkes estimate   =     -19.19302387 Ry
     estimated scf accuracy    <          8.7E-09 Ry

     The total energy is the sum of the following terms:

     one-electron contribution =       5.05640701 Ry
     hartree contribution      =       1.12228844 Ry
     xc contribution           =      -8.61325759 Ry
     ewald contribution        =     -16.75846174 Ry

     convergence has been achieved in   5 iterations

     Writing output data file silicon.10.286.save

     init_run     :      0.19s CPU      0.20s WALL (       1 calls)
     electrons    :      0.40s CPU      0.44s WALL (       1 calls)

     Called by init_run:
     wfcinit      :      0.01s CPU      0.02s WALL (       1 calls)
     potinit      :      0.01s CPU      0.01s WALL (       1 calls)

     Called by electrons:
     c_bands      :      0.12s CPU      0.13s WALL (       6 calls)
     sum_band     :      0.16s CPU      0.17s WALL (       6 calls)
     v_of_rho     :      0.05s CPU      0.05s WALL (       6 calls)
     newd         :      0.08s CPU      0.09s WALL (       6 calls)
     mix_rho      :      0.00s CPU      0.00s WALL (       6 calls)

     Called by c_bands:
     init_us_2    :      0.01s CPU      0.01s WALL (     130 calls)
     cegterg      :      0.10s CPU      0.11s WALL (      60 calls)

     Called by sum_band:
     sum_band:bec :      0.00s CPU      0.00s WALL (      60 calls)
     addusdens    :      0.12s CPU      0.13s WALL (       6 calls)

     Called by *egterg:
     h_psi        :      0.09s CPU      0.10s WALL (     187 calls)
     s_psi        :      0.00s CPU      0.00s WALL (     187 calls)
     g_psi        :      0.00s CPU      0.00s WALL (     117 calls)
     cdiaghg      :      0.01s CPU      0.01s WALL (     167 calls)

     Called by h_psi:
     h_psi:pot    :      0.09s CPU      0.10s WALL (     187 calls)
     h_psi:calbec :      0.00s CPU      0.00s WALL (     187 calls)
     vloc_psi     :      0.08s CPU      0.09s WALL (     187 calls)
     add_vuspsi   :      0.00s CPU      0.00s WALL (     187 calls)

     General routines
     calbec       :      0.01s CPU      0.01s WALL (     247 calls)
     fft          :      0.02s CPU      0.02s WALL (      96 calls)
     ffts         :      0.00s CPU      0.00s WALL (      12 calls)
     fftw         :      0.09s CPU      0.09s WALL (    1654 calls)
     interpolate  :      0.00s CPU      0.00s WALL (      12 calls)
     davcio       :      0.00s CPU      0.00s WALL (      10 calls)

     Parallel routines
     fft_scatter  :      0.03s CPU      0.04s WALL (    1762 calls)

     PWSCF        :     0.67s CPU         0.90s WALL


   This run was terminated on:  14: 5:54  10Nov2017            

=------------------------------------------------------------------------------=
   JOB DONE.
=------------------------------------------------------------------------------=
