
     Program PWSCF v.6.1 (svn rev. 13369) starts on 10Nov2017 at 10:31:55 

     This program is part of the open-source Quantum ESPRESSO suite
     for quantum simulation of materials; please cite
         "P. Giannozzi et al., J. Phys.:Condens. Matter 21 395502 (2009);
          URL http://www.quantum-espresso.org", 
     in publications or presentations arising from this work. More details at
     http://www.quantum-espresso.org/quote

     Parallel version (MPI), running on     4 processors
     R & G space division:  proc/nbgrp/npool/nimage =       4
     Waiting for input...
     Reading input from standard input
     Message from routine read_cards :
     DEPRECATED: no units specified in ATOMIC_POSITIONS card
     Message from routine read_cards :
     ATOMIC_POSITIONS: units set to alat

     Current dimensions of program PWSCF are:
     Max number of different atomic species (ntypx) = 10
     Max number of k-points (npk) =  40000
     Max angular momentum in pseudopotentials (lmaxx) =  3

     Subspace diagonalization in iterative solution of the eigenvalue problem:
     a serial algorithm will be used


     Parallelization info
     --------------------
     sticks:   dense  smooth     PW     G-vecs:    dense   smooth      PW
     Min         222     109     37                 4363     1545     309
     Max         223     110     38                 4364     1546     312
     Sum         889     439    151                17453     6183    1243



     bravais-lattice index     =            2
     lattice parameter (alat)  =      10.3520  a.u.
     unit-cell volume          =     277.3402 (a.u.)^3
     number of atoms/cell      =            2
     number of atomic types    =            1
     number of electrons       =         8.00
     number of Kohn-Sham states=            4
     kinetic-energy cutoff     =      30.0000  Ry
     charge density cutoff     =     240.0000  Ry
     convergence threshold     =      1.0E-08
     mixing beta               =       0.7000
     number of iterations used =            8  plain     mixing
     Exchange-correlation      = SLA  PW   PBE  PBE ( 1  4  3  4 0 0)

     celldm(1)=  10.352000  celldm(2)=   0.000000  celldm(3)=   0.000000
     celldm(4)=   0.000000  celldm(5)=   0.000000  celldm(6)=   0.000000

     crystal axes: (cart. coord. in units of alat)
               a(1) = (  -0.500000   0.000000   0.500000 )  
               a(2) = (   0.000000   0.500000   0.500000 )  
               a(3) = (  -0.500000   0.500000   0.000000 )  

     reciprocal axes: (cart. coord. in units 2 pi/alat)
               b(1) = ( -1.000000 -1.000000  1.000000 )  
               b(2) = (  1.000000  1.000000  1.000000 )  
               b(3) = ( -1.000000  1.000000 -1.000000 )  


     PseudoPot. # 1 for Si read from file:
     /home/max/quantum_espresso/qe-6.1/pseudo/si_pbe_v1.uspp.F.UPF.txt
     MD5 check sum: a056efeee980c13900f22a371efd63c1
     Pseudo is Ultrasoft + core correction, Zval =  4.0
     Generated by new atomic code, or converted to UPF format
     Using radial grid of  899 points,  6 beta functions with: 
                l(1) =   0
                l(2) =   0
                l(3) =   1
                l(4) =   1
                l(5) =   2
                l(6) =   2
     Q(r) pseudized with  8 coefficients,  rinner =    0.900   0.900   0.900
                                                       0.900   0.900

     atomic species   valence    mass     pseudopotential
        Si             4.00    28.08600     Si( 1.00)

     48 Sym. Ops., with inversion, found (24 have fractional translation)



   Cartesian axes

     site n.     atom                  positions (alat units)
         1           Si  tau(   1) = (   0.0000000   0.0000000   0.0000000  )
         2           Si  tau(   2) = (   0.2500000   0.2500000   0.2500000  )

     number of k points=    28
                       cart. coord. in units 2pi/alat
        k(    1) = (  -0.0833333   0.0833333   0.0833333), wk =   0.0185185
        k(    2) = (  -0.2500000   0.2500000  -0.0833333), wk =   0.0555556
        k(    3) = (  -0.4166667   0.4166667  -0.2500000), wk =   0.0555556
        k(    4) = (   0.4166667  -0.4166667   0.5833333), wk =   0.0555556
        k(    5) = (   0.2500000  -0.2500000   0.4166667), wk =   0.0555556
        k(    6) = (   0.0833333  -0.0833333   0.2500000), wk =   0.0555556
        k(    7) = (  -0.0833333   0.4166667   0.0833333), wk =   0.0555556
        k(    8) = (  -0.2500000   0.5833333  -0.0833333), wk =   0.1111111
        k(    9) = (   0.5833333  -0.2500000   0.7500000), wk =   0.1111111
        k(   10) = (   0.4166667  -0.0833333   0.5833333), wk =   0.1111111
        k(   11) = (   0.2500000   0.0833333   0.4166667), wk =   0.1111111
        k(   12) = (  -0.0833333   0.7500000   0.0833333), wk =   0.0555556
        k(   13) = (   0.7500000  -0.0833333   0.9166667), wk =   0.1111111
        k(   14) = (   0.5833333   0.0833333   0.7500000), wk =   0.1111111
        k(   15) = (   0.4166667   0.2500000   0.5833333), wk =   0.1111111
        k(   16) = (  -0.0833333  -0.9166667   0.0833333), wk =   0.0555556
        k(   17) = (  -0.2500000  -0.7500000  -0.0833333), wk =   0.1111111
        k(   18) = (  -0.0833333  -0.5833333   0.0833333), wk =   0.0555556
        k(   19) = (  -0.2500000   0.2500000   0.2500000), wk =   0.0185185
        k(   20) = (  -0.4166667   0.4166667   0.0833333), wk =   0.0555556
        k(   21) = (   0.4166667  -0.4166667   0.9166667), wk =   0.0555556
        k(   22) = (   0.2500000  -0.2500000   0.7500000), wk =   0.0555556
        k(   23) = (  -0.2500000   0.5833333   0.2500000), wk =   0.0555556
        k(   24) = (   0.5833333  -0.2500000   1.0833333), wk =   0.1111111
        k(   25) = (   0.4166667  -0.0833333   0.9166667), wk =   0.1111111
        k(   26) = (  -0.2500000  -1.0833333   0.2500000), wk =   0.0555556
        k(   27) = (  -0.4166667   0.4166667   0.4166667), wk =   0.0185185
        k(   28) = (   0.4166667  -0.4166667   1.2500000), wk =   0.0555556

     Dense  grid:    17453 G-vectors     FFT dimensions: (  40,  40,  40)

     Smooth grid:     6183 G-vectors     FFT dimensions: (  25,  25,  25)

     Estimated max dynamical RAM per process >       3.37MB

     Estimated total allocated dynamical RAM >      13.50MB

     Initial potential from superposition of free atoms

     starting charge    7.99866, renormalised to    8.00000
     Starting wfc are    8 randomized atomic wfcs

     total cpu time spent up to now is        0.6 secs

     per-process dynamical memory:     9.8 Mb

     Self-consistent Calculation

     iteration #  1     ecut=    30.00 Ry     beta=0.70
     Davidson diagonalization with overlap
     ethr =  1.00E-02,  avg # of iterations =  2.0

     Threshold (ethr) on eigenvalues was too large:
     Diagonalizing with lowered threshold

     Davidson diagonalization with overlap
     ethr =  6.70E-04,  avg # of iterations =  1.0

     total cpu time spent up to now is        1.3 secs

     total energy              =     -19.19120356 Ry
     Harris-Foulkes estimate   =     -19.20345321 Ry
     estimated scf accuracy    <       0.05320310 Ry

     iteration #  2     ecut=    30.00 Ry     beta=0.70
     Davidson diagonalization with overlap
     ethr =  6.65E-04,  avg # of iterations =  1.0

     total cpu time spent up to now is        1.6 secs

     total energy              =     -19.19296087 Ry
     Harris-Foulkes estimate   =     -19.19312719 Ry
     estimated scf accuracy    <       0.00244952 Ry

     iteration #  3     ecut=    30.00 Ry     beta=0.70
     Davidson diagonalization with overlap
     ethr =  3.06E-05,  avg # of iterations =  2.2

     total cpu time spent up to now is        1.8 secs

     total energy              =     -19.19330945 Ry
     Harris-Foulkes estimate   =     -19.19332138 Ry
     estimated scf accuracy    <       0.00003963 Ry

     iteration #  4     ecut=    30.00 Ry     beta=0.70
     Davidson diagonalization with overlap
     ethr =  4.95E-07,  avg # of iterations =  3.2

     total cpu time spent up to now is        2.1 secs

     total energy              =     -19.19334394 Ry
     Harris-Foulkes estimate   =     -19.19334453 Ry
     estimated scf accuracy    <       0.00000249 Ry

     iteration #  5     ecut=    30.00 Ry     beta=0.70
     Davidson diagonalization with overlap
     ethr =  3.12E-08,  avg # of iterations =  2.0

     total cpu time spent up to now is        2.4 secs

     End of self-consistent calculation

          k =-0.0833 0.0833 0.0833 (   752 PWs)   bands (ev):

    -5.7686   5.0649   5.7840   5.7840

          k =-0.2500 0.2500-0.0833 (   774 PWs)   bands (ev):

    -5.3013   3.0031   4.5735   5.5750

          k =-0.4167 0.4167-0.2500 (   771 PWs)   bands (ev):

    -4.2329   0.2911   4.1110   4.9495

          k = 0.4167-0.4167 0.5833 (   771 PWs)   bands (ev):

    -3.5547  -0.8258   4.1725   4.5773

          k = 0.2500-0.2500 0.4167 (   774 PWs)   bands (ev):

    -4.6351   1.1212   4.6388   4.6625

          k = 0.0833-0.0833 0.2500 (   781 PWs)   bands (ev):

    -5.5327   3.9994   5.1530   5.3280

          k =-0.0833 0.4167 0.0833 (   775 PWs)   bands (ev):

    -5.0648   2.8027   4.4169   4.4374

          k =-0.2500 0.5833-0.0833 (   775 PWs)   bands (ev):

    -4.1731   0.9901   3.1288   4.0566

          k = 0.5833-0.2500 0.7500 (   765 PWs)   bands (ev):

    -3.0859  -0.7165   2.5324   3.8358

          k = 0.4167-0.0833 0.5833 (   771 PWs)   bands (ev):

    -3.7881   0.3134   2.4990   4.3101

          k = 0.2500 0.0833 0.4167 (   778 PWs)   bands (ev):

    -4.8441   1.9872   3.8113   4.9611

          k =-0.0833 0.7500 0.0833 (   774 PWs)   bands (ev):

    -3.4748   0.1655   3.0970   3.4269

          k = 0.7500-0.0833 0.9167 (   764 PWs)   bands (ev):

    -2.3052  -1.1513   2.2775   3.0321

          k = 0.5833 0.0833 0.7500 (   767 PWs)   bands (ev):

    -2.6738  -0.8122   1.8028   3.5657

          k = 0.4167 0.2500 0.5833 (   773 PWs)   bands (ev):

    -3.6809  -0.3424   3.4108   4.4047

          k =-0.0833-0.9167 0.0833 (   765 PWs)   bands (ev):

    -2.3925  -1.1580   2.8331   3.2152

          k =-0.2500-0.7500-0.0833 (   767 PWs)   bands (ev):

    -3.3110  -0.0518   2.5884   3.3659

          k =-0.0833-0.5833 0.0833 (   775 PWs)   bands (ev):

    -4.3738   1.5115   3.6289   3.8418

          k =-0.2500 0.2500 0.2500 (   778 PWs)   bands (ev):

    -5.0766   2.0448   5.1809   5.1809

          k =-0.4167 0.4167 0.0833 (   779 PWs)   bands (ev):

    -4.4115   1.1131   3.0929   5.0131

          k = 0.4167-0.4167 0.9167 (   769 PWs)   bands (ev):

    -3.2598  -0.3103   2.0120   4.2442

          k = 0.2500-0.2500 0.7500 (   768 PWs)   bands (ev):

    -3.2076  -0.3887   2.4771   3.7728

          k =-0.2500 0.5833 0.2500 (   775 PWs)   bands (ev):

    -3.9969   0.3231   3.5383   4.1387

          k = 0.5833-0.2500 1.0833 (   764 PWs)   bands (ev):

    -3.0170  -0.4296   2.1113   3.3659

          k = 0.4167-0.0833 0.9167 (   759 PWs)   bands (ev):

    -2.2042  -1.1590   1.9566   2.7148

          k =-0.2500-1.0833 0.2500 (   762 PWs)   bands (ev):

    -2.4112  -1.0608   1.8328   3.5819

          k =-0.4167 0.4167 0.4167 (   769 PWs)   bands (ev):

    -3.9132  -0.4340   4.7973   4.7973

          k = 0.4167-0.4167 1.2500 (   771 PWs)   bands (ev):

    -3.3233  -0.7369   2.9948   4.3679

     highest occupied level (ev):     5.7840

!    total energy              =     -19.19334429 Ry
     Harris-Foulkes estimate   =     -19.19334428 Ry
     estimated scf accuracy    <          9.6E-09 Ry

     The total energy is the sum of the following terms:

     one-electron contribution =       4.91004232 Ry
     hartree contribution      =       1.13859185 Ry
     xc contribution           =      -8.59036162 Ry
     ewald contribution        =     -16.65161683 Ry

     convergence has been achieved in   5 iterations

     Writing output data file silicon.10.352.save

     init_run     :      0.41s CPU      0.52s WALL (       1 calls)
     electrons    :      1.30s CPU      1.75s WALL (       1 calls)

     Called by init_run:
     wfcinit      :      0.14s CPU      0.21s WALL (       1 calls)
     potinit      :      0.03s CPU      0.03s WALL (       1 calls)

     Called by electrons:
     c_bands      :      0.75s CPU      1.05s WALL (       6 calls)
     sum_band     :      0.31s CPU      0.44s WALL (       6 calls)
     v_of_rho     :      0.12s CPU      0.13s WALL (       6 calls)
     newd         :      0.14s CPU      0.15s WALL (       6 calls)
     mix_rho      :      0.01s CPU      0.01s WALL (       6 calls)

     Called by c_bands:
     init_us_2    :      0.05s CPU      0.06s WALL (     364 calls)
     cegterg      :      0.64s CPU      0.91s WALL (     168 calls)

     Called by sum_band:
     sum_band:bec :      0.00s CPU      0.00s WALL (     168 calls)
     addusdens    :      0.15s CPU      0.18s WALL (       6 calls)

     Called by *egterg:
     h_psi        :      0.60s CPU      0.87s WALL (     518 calls)
     s_psi        :      0.04s CPU      0.05s WALL (     518 calls)
     g_psi        :      0.00s CPU      0.00s WALL (     322 calls)
     cdiaghg      :      0.04s CPU      0.06s WALL (     462 calls)

     Called by h_psi:
     h_psi:pot    :      0.60s CPU      0.87s WALL (     518 calls)
     h_psi:calbec :      0.06s CPU      0.10s WALL (     518 calls)
     vloc_psi     :      0.49s CPU      0.71s WALL (     518 calls)
     add_vuspsi   :      0.04s CPU      0.05s WALL (     518 calls)

     General routines
     calbec       :      0.08s CPU      0.13s WALL (     686 calls)
     fft          :      0.09s CPU      0.13s WALL (      96 calls)
     ffts         :      0.00s CPU      0.00s WALL (      12 calls)
     fftw         :      0.48s CPU      0.75s WALL (    4618 calls)
     interpolate  :      0.01s CPU      0.03s WALL (      12 calls)
     davcio       :      0.00s CPU      0.00s WALL (      28 calls)

     Parallel routines
     fft_scatter  :      0.28s CPU      0.55s WALL (    4726 calls)

     PWSCF        :     1.92s CPU         2.53s WALL


   This run was terminated on:  10:31:58  10Nov2017            

=------------------------------------------------------------------------------=
   JOB DONE.
=------------------------------------------------------------------------------=
