
     Program PHONON v.6.1 (svn rev. 13369) starts on  9Nov2017 at  1:35:35 

     This program is part of the open-source Quantum ESPRESSO suite
     for quantum simulation of materials; please cite
         "P. Giannozzi et al., J. Phys.:Condens. Matter 21 395502 (2009);
          URL http://www.quantum-espresso.org", 
     in publications or presentations arising from this work. More details at
     http://www.quantum-espresso.org/quote

     Parallel version (MPI), running on     4 processors
     R & G space division:  proc/nbgrp/npool/nimage =       4

     Reading data from directory:
     ./silicon.10.42.save

   Info: using nr1, nr2, nr3 values from input

   Info: using nr1, nr2, nr3 values from input

     IMPORTANT: XC functional enforced from input :
     Exchange-correlation      = SLA  PW   PBE  PBE ( 1  4  3  4 0 0)
     Any further DFT definition will be discarded
     Please, verify this is what you really want


     Parallelization info
     --------------------
     sticks:   dense  smooth     PW     G-vecs:    dense   smooth      PW
     Min          66      66     22                  722      722     152
     Max          67      67     23                  724      724     153
     Sum         265     265     91                 2891     2891     609


     Check: negative/imaginary core charge=   -0.000006    0.000000


     Dynamical matrices for ( 4, 4, 4)  uniform grid of q-points
     (   8q-points):
       N         xq(1)         xq(2)         xq(3) 
       1   0.000000000   0.000000000   0.000000000
       2  -0.250000000   0.250000000  -0.250000000
       3   0.500000000  -0.500000000   0.500000000
       4   0.000000000   0.500000000   0.000000000
       5   0.750000000  -0.250000000   0.750000000
       6   0.500000000   0.000000000   0.500000000
       7   0.000000000  -1.000000000   0.000000000
       8  -0.500000000  -1.000000000   0.000000000

     Calculation of q =    0.0000000   0.0000000   0.0000000

                                                                                

     bravais-lattice index     =            2
     lattice parameter (alat)  =      10.4200  a.u.
     unit-cell volume          =     282.8415 (a.u.)^3
     number of atoms/cell      =            2
     number of atomic types    =            1
     kinetic-energy cut-off    =      18.0000  Ry
     charge density cut-off    =      72.0000  Ry
     convergence threshold     =      1.0E-12
     beta                      =       0.7000
     number of iterations used =            4
     Exchange-correlation      = SLA  PW   PBE  PBE ( 1  4  3  4 0 0)


     celldm(1)=   10.42000  celldm(2)=    0.00000  celldm(3)=    0.00000
     celldm(4)=    0.00000  celldm(5)=    0.00000  celldm(6)=    0.00000

     crystal axes: (cart. coord. in units of alat)
               a(1) = ( -0.5000  0.0000  0.5000 )  
               a(2) = (  0.0000  0.5000  0.5000 )  
               a(3) = ( -0.5000  0.5000  0.0000 )  

     reciprocal axes: (cart. coord. in units 2 pi/alat)
               b(1) = ( -1.0000 -1.0000  1.0000 )  
               b(2) = (  1.0000  1.0000  1.0000 )  
               b(3) = ( -1.0000  1.0000 -1.0000 )  


     Atoms inside the unit cell: 

     Cartesian axes

     site n.  atom      mass           positions (alat units)
        1     Si  28.0860   tau(    1) = (    0.00000    0.00000    0.00000  )
        2     Si  28.0860   tau(    2) = (    0.25000    0.25000    0.25000  )

     Computing dynamical matrix for 
                    q = (   0.0000000   0.0000000   0.0000000 )

     49 Sym.Ops. (with q -> -q+G )


     G cutoff =  198.0196  (    722 G-vectors)     FFT grid: ( 20, 20, 20)
     number of k points=    10

     PseudoPot. # 1 for Si read from file:
     /home/max/quantum_espresso/qe-6.1/pseudo/si_pbe_v1.uspp.F.UPF.txt
     MD5 check sum: a056efeee980c13900f22a371efd63c1
     Pseudo is Ultrasoft + core correction, Zval =  4.0
     Generated by new atomic code, or converted to UPF format
     Using radial grid of  899 points,  6 beta functions with: 
                l(1) =   0
                l(2) =   0
                l(3) =   1
                l(4) =   1
                l(5) =   2
                l(6) =   2
     Q(r) pseudized with  8 coefficients,  rinner =    0.900   0.900   0.900
                                                       0.900   0.900

     Mode symmetry, O_h (m-3m)  point group:


     Electric field:
     Dielectric constant
     Born effective charges in two ways 


     Atomic displacements:
     There are   2 irreducible representations

     Representation     1      3 modes -T_2g G_25' G_5+  To be done

     Representation     2      3 modes -T_1u G_15  G_4-  To be done



     Alpha used in Ewald sum =   0.7000
     PHONON       :     0.41s CPU         0.41s WALL


     Electric Fields Calculation

      iter #   1 total cpu time :     0.8 secs   av.it.:   5.6
      thresh= 1.000E-02 alpha_mix =  0.700 |ddv_scf|^2 =  9.649E-07

      iter #   2 total cpu time :     1.0 secs   av.it.:   9.9
      thresh= 9.823E-05 alpha_mix =  0.700 |ddv_scf|^2 =  6.338E-08

      iter #   3 total cpu time :     1.1 secs   av.it.:   9.8
      thresh= 2.517E-05 alpha_mix =  0.700 |ddv_scf|^2 =  5.043E-09

      iter #   4 total cpu time :     1.3 secs   av.it.:   9.0
      thresh= 7.101E-06 alpha_mix =  0.700 |ddv_scf|^2 =  3.063E-11

      iter #   5 total cpu time :     1.5 secs   av.it.:   9.2
      thresh= 5.535E-07 alpha_mix =  0.700 |ddv_scf|^2 =  1.566E-14

     End of electric fields calculation

          Dielectric constant in cartesian axis 

          (      14.071825648      -0.000000000      -0.000000000 )
          (      -0.000000000      14.071825648      -0.000000000 )
          (      -0.000000000      -0.000000000      14.071825648 )

          Effective charges (d Force / dE) in cartesian axis

           atom      1   Si 
      Ex  (       -0.03288        0.00000        0.00000 )
      Ey  (        0.00000       -0.03288       -0.00000 )
      Ez  (        0.00000        0.00000       -0.03288 )
           atom      2   Si 
      Ex  (       -0.03288       -0.00000        0.00000 )
      Ey  (        0.00000       -0.03288        0.00000 )
      Ez  (       -0.00000        0.00000       -0.03288 )


     Representation #  1 modes #   1  2  3

     Self-consistent Calculation

      iter #   1 total cpu time :     1.9 secs   av.it.:   4.9
      thresh= 1.000E-02 alpha_mix =  0.700 |ddv_scf|^2 =  1.863E-07

      iter #   2 total cpu time :     2.1 secs   av.it.:  10.0
      thresh= 4.316E-05 alpha_mix =  0.700 |ddv_scf|^2 =  1.034E-08

      iter #   3 total cpu time :     2.2 secs   av.it.:   9.5
      thresh= 1.017E-05 alpha_mix =  0.700 |ddv_scf|^2 =  7.148E-10

      iter #   4 total cpu time :     2.4 secs   av.it.:   9.1
      thresh= 2.674E-06 alpha_mix =  0.700 |ddv_scf|^2 =  1.847E-12

      iter #   5 total cpu time :     2.6 secs   av.it.:   9.5
      thresh= 1.359E-07 alpha_mix =  0.700 |ddv_scf|^2 =  1.559E-14

     End of self-consistent calculation

     Convergence has been achieved 


     Representation #  2 modes #   4  5  6

     Self-consistent Calculation

      iter #   1 total cpu time :     2.8 secs   av.it.:   5.0
      thresh= 1.000E-02 alpha_mix =  0.700 |ddv_scf|^2 =  1.946E-07

      iter #   2 total cpu time :     3.0 secs   av.it.:   9.6
      thresh= 4.411E-05 alpha_mix =  0.700 |ddv_scf|^2 =  1.615E-08

      iter #   3 total cpu time :     3.2 secs   av.it.:   9.2
      thresh= 1.271E-05 alpha_mix =  0.700 |ddv_scf|^2 =  9.666E-10

      iter #   4 total cpu time :     3.3 secs   av.it.:   9.5
      thresh= 3.109E-06 alpha_mix =  0.700 |ddv_scf|^2 =  5.631E-12

      iter #   5 total cpu time :     3.5 secs   av.it.:   9.1
      thresh= 2.373E-07 alpha_mix =  0.700 |ddv_scf|^2 =  5.204E-15

     End of self-consistent calculation

     Convergence has been achieved 

     Number of q in the star =    1
     List of q in the star:
          1   0.000000000   0.000000000   0.000000000

          Dielectric constant in cartesian axis 

          (      14.071825648      -0.000000000      -0.000000000 )
          (      -0.000000000      14.071825648      -0.000000000 )
          (      -0.000000000      -0.000000000      14.071825648 )

          Effective charges (d Force / dE) in cartesian axis

           atom      1   Si 
      Ex  (       -0.03288        0.00000        0.00000 )
      Ey  (        0.00000       -0.03288       -0.00000 )
      Ez  (        0.00000        0.00000       -0.03288 )
           atom      2   Si 
      Ex  (       -0.03288       -0.00000        0.00000 )
      Ey  (        0.00000       -0.03288        0.00000 )
      Ez  (       -0.00000        0.00000       -0.03288 )

          Effective charges (d P / du) in cartesian axis 

           atom      1   Si 
      Px  (       -0.07617       -0.00000       -0.00000 )
      Py  (       -0.00000       -0.07617        0.00000 )
      Pz  (       -0.00000        0.00000       -0.07617 )
           atom      2   Si 
      Px  (       -0.07617        0.00000        0.00000 )
      Py  (        0.00000       -0.07617        0.00000 )
      Pz  (        0.00000       -0.00000       -0.07617 )

     Diagonalizing the dynamical matrix

     q = (    0.000000000   0.000000000   0.000000000 ) 

 **************************************************************************
     freq (    1) =       1.738983 [THz] =      58.006215 [cm-1]
     freq (    2) =       1.738983 [THz] =      58.006215 [cm-1]
     freq (    3) =       1.738983 [THz] =      58.006215 [cm-1]
     freq (    4) =      15.497867 [THz] =     516.953201 [cm-1]
     freq (    5) =      15.497867 [THz] =     516.953201 [cm-1]
     freq (    6) =      15.497867 [THz] =     516.953201 [cm-1]
 **************************************************************************

     Mode symmetry, O_h (m-3m)  point group:

     freq (  1 -  3) =         58.0  [cm-1]   --> T_1u G_15  G_4- I  
     freq (  4 -  6) =        517.0  [cm-1]   --> T_2g G_25' G_5+ R  

     Calculation of q =   -0.2500000   0.2500000  -0.2500000

   Info: using nr1, nr2, nr3 values from input

   Info: using nr1, nr2, nr3 values from input

     Parallelization info
     --------------------
     sticks:   dense  smooth     PW     G-vecs:    dense   smooth      PW
     Min          66      66     27                  722      722     175
     Max          67      67     28                  724      724     176
     Sum         265     265    109                 2891     2891     701



     bravais-lattice index     =            2
     lattice parameter (alat)  =      10.4200  a.u.
     unit-cell volume          =     282.8415 (a.u.)^3
     number of atoms/cell      =            2
     number of atomic types    =            1
     number of electrons       =         8.00
     number of Kohn-Sham states=            4
     kinetic-energy cutoff     =      18.0000  Ry
     charge density cutoff     =      72.0000  Ry
     Exchange-correlation      = SLA  PW   PBE  PBE ( 1  4  3  4 0 0)

     celldm(1)=  10.420000  celldm(2)=   0.000000  celldm(3)=   0.000000
     celldm(4)=   0.000000  celldm(5)=   0.000000  celldm(6)=   0.000000

     crystal axes: (cart. coord. in units of alat)
               a(1) = (  -0.500000   0.000000   0.500000 )  
               a(2) = (   0.000000   0.500000   0.500000 )  
               a(3) = (  -0.500000   0.500000   0.000000 )  

     reciprocal axes: (cart. coord. in units 2 pi/alat)
               b(1) = ( -1.000000 -1.000000  1.000000 )  
               b(2) = (  1.000000  1.000000  1.000000 )  
               b(3) = ( -1.000000  1.000000 -1.000000 )  


     PseudoPot. # 1 for Si read from file:
     /home/max/quantum_espresso/qe-6.1/pseudo/si_pbe_v1.uspp.F.UPF.txt
     MD5 check sum: a056efeee980c13900f22a371efd63c1
     Pseudo is Ultrasoft + core correction, Zval =  4.0
     Generated by new atomic code, or converted to UPF format
     Using radial grid of  899 points,  6 beta functions with: 
                l(1) =   0
                l(2) =   0
                l(3) =   1
                l(4) =   1
                l(5) =   2
                l(6) =   2
     Q(r) pseudized with  8 coefficients,  rinner =    0.900   0.900   0.900
                                                       0.900   0.900

     atomic species   valence    mass     pseudopotential
        Si             4.00    28.08600     Si( 1.00)

     48 Sym. Ops., with inversion, found



   Cartesian axes

     site n.     atom                  positions (alat units)
         1           Si  tau(   1) = (   0.0000000   0.0000000   0.0000000  )
         2           Si  tau(   2) = (   0.2500000   0.2500000   0.2500000  )

     number of k points=   120

     Number of k-points >= 100: set verbosity='high' to print them.

     Dense  grid:     2891 G-vectors     FFT dimensions: (  20,  20,  20)

     Estimated max dynamical RAM per process >       0.33MB

     Estimated total allocated dynamical RAM >       1.34MB

     Check: negative/imaginary core charge=   -0.000006    0.000000

     The potential is recalculated from file :
     ./_ph0/silicon.10.42.save/charge-density.dat

     Starting wfc are    8 atomic wfcs

     Band Structure Calculation
     Davidson diagonalization with overlap

     ethr =  1.25E-10,  avg # of iterations = 11.7

     total cpu time spent up to now is        0.8 secs

     End of band structure calculation

     Number of k-points >= 100: set verbosity='high' to print the bands.

     highest occupied level (ev):     5.4538

     Writing output data file silicon.10.42.save

                                                                                

     bravais-lattice index     =            2
     lattice parameter (alat)  =      10.4200  a.u.
     unit-cell volume          =     282.8415 (a.u.)^3
     number of atoms/cell      =            2
     number of atomic types    =            1
     kinetic-energy cut-off    =      18.0000  Ry
     charge density cut-off    =      72.0000  Ry
     convergence threshold     =      1.0E-12
     beta                      =       0.7000
     number of iterations used =            4
     Exchange-correlation      = SLA  PW   PBE  PBE ( 1  4  3  4 0 0)


     celldm(1)=   10.42000  celldm(2)=    0.00000  celldm(3)=    0.00000
     celldm(4)=    0.00000  celldm(5)=    0.00000  celldm(6)=    0.00000

     crystal axes: (cart. coord. in units of alat)
               a(1) = ( -0.5000  0.0000  0.5000 )  
               a(2) = (  0.0000  0.5000  0.5000 )  
               a(3) = ( -0.5000  0.5000  0.0000 )  

     reciprocal axes: (cart. coord. in units 2 pi/alat)
               b(1) = ( -1.0000 -1.0000  1.0000 )  
               b(2) = (  1.0000  1.0000  1.0000 )  
               b(3) = ( -1.0000  1.0000 -1.0000 )  


     Atoms inside the unit cell: 

     Cartesian axes

     site n.  atom      mass           positions (alat units)
        1     Si  28.0860   tau(    1) = (    0.00000    0.00000    0.00000  )
        2     Si  28.0860   tau(    2) = (    0.25000    0.25000    0.25000  )

     Computing dynamical matrix for 
                    q = (  -0.2500000   0.2500000  -0.2500000 )

      6 Sym.Ops. (no q -> -q+G )


     G cutoff =  198.0196  (    722 G-vectors)     FFT grid: ( 20, 20, 20)
     number of k points=   120

     PseudoPot. # 1 for Si read from file:
     /home/max/quantum_espresso/qe-6.1/pseudo/si_pbe_v1.uspp.F.UPF.txt
     MD5 check sum: a056efeee980c13900f22a371efd63c1
     Pseudo is Ultrasoft + core correction, Zval =  4.0
     Generated by new atomic code, or converted to UPF format
     Using radial grid of  899 points,  6 beta functions with: 
                l(1) =   0
                l(2) =   0
                l(3) =   1
                l(4) =   1
                l(5) =   2
                l(6) =   2
     Q(r) pseudized with  8 coefficients,  rinner =    0.900   0.900   0.900
                                                       0.900   0.900

     Mode symmetry, C_3v (3m)   point group:


     Atomic displacements:
     There are   4 irreducible representations

     Representation     1      1 modes -A_1  L_1  To be done

     Representation     2      1 modes -A_1  L_1  To be done

     Representation     3      2 modes -E    L_3  To be done

     Representation     4      2 modes -E    L_3  To be done



     Alpha used in Ewald sum =   0.7000
     PHONON       :     4.62s CPU         4.78s WALL



     Representation #  1 mode #   1

     Self-consistent Calculation

      iter #   1 total cpu time :     5.0 secs   av.it.:   5.5
      thresh= 1.000E-02 alpha_mix =  0.700 |ddv_scf|^2 =  2.416E-03

      iter #   2 total cpu time :     5.2 secs   av.it.:   7.5
      thresh= 4.915E-03 alpha_mix =  0.700 |ddv_scf|^2 =  3.684E-02

      iter #   3 total cpu time :     5.5 secs   av.it.:   6.3
      thresh= 1.000E-02 alpha_mix =  0.700 |ddv_scf|^2 =  1.689E-06

      iter #   4 total cpu time :     5.7 secs   av.it.:   8.2
      thresh= 1.300E-04 alpha_mix =  0.700 |ddv_scf|^2 =  1.142E-07

      iter #   5 total cpu time :     6.0 secs   av.it.:   8.1
      thresh= 3.380E-05 alpha_mix =  0.700 |ddv_scf|^2 =  4.779E-09

      iter #   6 total cpu time :     6.3 secs   av.it.:   8.1
      thresh= 6.913E-06 alpha_mix =  0.700 |ddv_scf|^2 =  4.489E-09

      iter #   7 total cpu time :     6.5 secs   av.it.:   6.2
      thresh= 6.700E-06 alpha_mix =  0.700 |ddv_scf|^2 =  6.139E-10

      iter #   8 total cpu time :     6.7 secs   av.it.:   7.3
      thresh= 2.478E-06 alpha_mix =  0.700 |ddv_scf|^2 =  4.639E-12

      iter #   9 total cpu time :     7.0 secs   av.it.:   7.1
      thresh= 2.154E-07 alpha_mix =  0.700 |ddv_scf|^2 =  2.547E-13

     End of self-consistent calculation

     Convergence has been achieved 


     Representation #  2 mode #   2

     Self-consistent Calculation

      iter #   1 total cpu time :     7.2 secs   av.it.:   5.5
      thresh= 1.000E-02 alpha_mix =  0.700 |ddv_scf|^2 =  2.416E-03

      iter #   2 total cpu time :     7.4 secs   av.it.:   7.5
      thresh= 4.915E-03 alpha_mix =  0.700 |ddv_scf|^2 =  3.684E-02

      iter #   3 total cpu time :     7.7 secs   av.it.:   6.3
      thresh= 1.000E-02 alpha_mix =  0.700 |ddv_scf|^2 =  1.689E-06

      iter #   4 total cpu time :     7.9 secs   av.it.:   8.2
      thresh= 1.300E-04 alpha_mix =  0.700 |ddv_scf|^2 =  1.142E-07

      iter #   5 total cpu time :     8.2 secs   av.it.:   8.1
      thresh= 3.380E-05 alpha_mix =  0.700 |ddv_scf|^2 =  4.779E-09

      iter #   6 total cpu time :     8.5 secs   av.it.:   8.1
      thresh= 6.913E-06 alpha_mix =  0.700 |ddv_scf|^2 =  4.489E-09

      iter #   7 total cpu time :     8.7 secs   av.it.:   6.2
      thresh= 6.700E-06 alpha_mix =  0.700 |ddv_scf|^2 =  6.139E-10

      iter #   8 total cpu time :     8.9 secs   av.it.:   7.3
      thresh= 2.478E-06 alpha_mix =  0.700 |ddv_scf|^2 =  4.639E-12

      iter #   9 total cpu time :     9.2 secs   av.it.:   7.1
      thresh= 2.154E-07 alpha_mix =  0.700 |ddv_scf|^2 =  2.547E-13

     End of self-consistent calculation

     Convergence has been achieved 


     Representation #  3 modes #   3  4

     Self-consistent Calculation

      iter #   1 total cpu time :     9.6 secs   av.it.:   5.0
      thresh= 1.000E-02 alpha_mix =  0.700 |ddv_scf|^2 =  5.388E-07

      iter #   2 total cpu time :    10.2 secs   av.it.:   9.5
      thresh= 7.340E-05 alpha_mix =  0.700 |ddv_scf|^2 =  4.053E-08

      iter #   3 total cpu time :    10.7 secs   av.it.:   9.3
      thresh= 2.013E-05 alpha_mix =  0.700 |ddv_scf|^2 =  3.503E-09

      iter #   4 total cpu time :    11.3 secs   av.it.:   8.9
      thresh= 5.919E-06 alpha_mix =  0.700 |ddv_scf|^2 =  1.155E-11

      iter #   5 total cpu time :    11.9 secs   av.it.:   9.2
      thresh= 3.399E-07 alpha_mix =  0.700 |ddv_scf|^2 =  5.117E-13

     End of self-consistent calculation

     Convergence has been achieved 


     Representation #  4 modes #   5  6

     Self-consistent Calculation

      iter #   1 total cpu time :    12.3 secs   av.it.:   5.0
      thresh= 1.000E-02 alpha_mix =  0.700 |ddv_scf|^2 =  5.386E-07

      iter #   2 total cpu time :    12.9 secs   av.it.:   9.7
      thresh= 7.339E-05 alpha_mix =  0.700 |ddv_scf|^2 =  4.047E-08

      iter #   3 total cpu time :    13.5 secs   av.it.:   9.4
      thresh= 2.012E-05 alpha_mix =  0.700 |ddv_scf|^2 =  3.499E-09

      iter #   4 total cpu time :    14.1 secs   av.it.:   9.1
      thresh= 5.915E-06 alpha_mix =  0.700 |ddv_scf|^2 =  1.156E-11

      iter #   5 total cpu time :    14.6 secs   av.it.:   9.3
      thresh= 3.400E-07 alpha_mix =  0.700 |ddv_scf|^2 =  5.121E-13

     End of self-consistent calculation

     Convergence has been achieved 

     Number of q in the star =    8
     List of q in the star:
          1  -0.250000000   0.250000000  -0.250000000
          2   0.250000000  -0.250000000  -0.250000000
          3   0.250000000  -0.250000000   0.250000000
          4   0.250000000   0.250000000   0.250000000
          5  -0.250000000  -0.250000000  -0.250000000
          6  -0.250000000  -0.250000000   0.250000000
          7  -0.250000000   0.250000000   0.250000000
          8   0.250000000   0.250000000  -0.250000000

     Diagonalizing the dynamical matrix

     q = (   -0.250000000   0.250000000  -0.250000000 ) 

 **************************************************************************
     freq (    1) =       3.394346 [THz] =     113.223182 [cm-1]
     freq (    2) =       3.394346 [THz] =     113.223182 [cm-1]
     freq (    3) =       6.772720 [THz] =     225.913616 [cm-1]
     freq (    4) =      14.601603 [THz] =     487.057048 [cm-1]
     freq (    5) =      14.867067 [THz] =     495.911967 [cm-1]
     freq (    6) =      14.867067 [THz] =     495.911967 [cm-1]
 **************************************************************************

     Mode symmetry, C_3v (3m)   point group:

     freq (  1 -  2) =        113.2  [cm-1]   --> E    L_3           
     freq (  3 -  3) =        225.9  [cm-1]   --> A_1  L_1           
     freq (  4 -  4) =        487.1  [cm-1]   --> A_1  L_1           
     freq (  5 -  6) =        495.9  [cm-1]   --> E    L_3           

     Calculation of q =    0.5000000  -0.5000000   0.5000000

   Info: using nr1, nr2, nr3 values from input

   Info: using nr1, nr2, nr3 values from input

     Parallelization info
     --------------------
     sticks:   dense  smooth     PW     G-vecs:    dense   smooth      PW
     Min          66      66     27                  722      722     186
     Max          67      67     28                  724      724     189
     Sum         265     265    109                 2891     2891     749



     bravais-lattice index     =            2
     lattice parameter (alat)  =      10.4200  a.u.
     unit-cell volume          =     282.8415 (a.u.)^3
     number of atoms/cell      =            2
     number of atomic types    =            1
     number of electrons       =         8.00
     number of Kohn-Sham states=            4
     kinetic-energy cutoff     =      18.0000  Ry
     charge density cutoff     =      72.0000  Ry
     Exchange-correlation      = SLA  PW   PBE  PBE ( 1  4  3  4 0 0)

     celldm(1)=  10.420000  celldm(2)=   0.000000  celldm(3)=   0.000000
     celldm(4)=   0.000000  celldm(5)=   0.000000  celldm(6)=   0.000000

     crystal axes: (cart. coord. in units of alat)
               a(1) = (  -0.500000   0.000000   0.500000 )  
               a(2) = (   0.000000   0.500000   0.500000 )  
               a(3) = (  -0.500000   0.500000   0.000000 )  

     reciprocal axes: (cart. coord. in units 2 pi/alat)
               b(1) = ( -1.000000 -1.000000  1.000000 )  
               b(2) = (  1.000000  1.000000  1.000000 )  
               b(3) = ( -1.000000  1.000000 -1.000000 )  


     PseudoPot. # 1 for Si read from file:
     /home/max/quantum_espresso/qe-6.1/pseudo/si_pbe_v1.uspp.F.UPF.txt
     MD5 check sum: a056efeee980c13900f22a371efd63c1
     Pseudo is Ultrasoft + core correction, Zval =  4.0
     Generated by new atomic code, or converted to UPF format
     Using radial grid of  899 points,  6 beta functions with: 
                l(1) =   0
                l(2) =   0
                l(3) =   1
                l(4) =   1
                l(5) =   2
                l(6) =   2
     Q(r) pseudized with  8 coefficients,  rinner =    0.900   0.900   0.900
                                                       0.900   0.900

     atomic species   valence    mass     pseudopotential
        Si             4.00    28.08600     Si( 1.00)

     48 Sym. Ops., with inversion, found



   Cartesian axes

     site n.     atom                  positions (alat units)
         1           Si  tau(   1) = (   0.0000000   0.0000000   0.0000000  )
         2           Si  tau(   2) = (   0.2500000   0.2500000   0.2500000  )

     number of k points=    60
                       cart. coord. in units 2pi/alat
        k(    1) = (  -0.1250000   0.1250000   0.1250000), wk =   0.0468750
        k(    2) = (   0.3750000  -0.3750000   0.6250000), wk =   0.0000000
        k(    3) = (  -0.3750000   0.3750000  -0.1250000), wk =   0.0468750
        k(    4) = (   0.1250000  -0.1250000   0.3750000), wk =   0.0000000
        k(    5) = (   0.3750000  -0.3750000   0.6250000), wk =   0.0468750
        k(    6) = (   0.8750000  -0.8750000   1.1250000), wk =   0.0000000
        k(    7) = (   0.1250000  -0.1250000   0.3750000), wk =   0.0468750
        k(    8) = (   0.6250000  -0.6250000   0.8750000), wk =   0.0000000
        k(    9) = (  -0.1250000   0.6250000   0.1250000), wk =   0.0937500
        k(   10) = (   0.3750000   0.1250000   0.6250000), wk =   0.0000000
        k(   11) = (   0.6250000  -0.1250000   0.8750000), wk =   0.0937500
        k(   12) = (   1.1250000  -0.6250000   1.3750000), wk =   0.0000000
        k(   13) = (   0.3750000   0.1250000   0.6250000), wk =   0.0937500
        k(   14) = (   0.8750000  -0.3750000   1.1250000), wk =   0.0000000
        k(   15) = (  -0.1250000  -0.8750000   0.1250000), wk =   0.0937500
        k(   16) = (   0.3750000  -1.3750000   0.6250000), wk =   0.0000000
        k(   17) = (  -0.3750000   0.3750000   0.3750000), wk =   0.0468750
        k(   18) = (   0.1250000  -0.1250000   0.8750000), wk =   0.0000000
        k(   19) = (   0.3750000  -0.3750000   1.1250000), wk =   0.0468750
        k(   20) = (   0.8750000  -0.8750000   1.6250000), wk =   0.0000000
        k(   21) = (   0.1250000  -0.1250000   0.1250000), wk =   0.0156250
        k(   22) = (   0.6250000  -0.6250000   0.6250000), wk =   0.0000000
        k(   23) = (  -0.3750000  -0.3750000  -0.1250000), wk =   0.0937500
        k(   24) = (   0.1250000  -0.8750000   0.3750000), wk =   0.0000000
        k(   25) = (  -0.1250000  -0.3750000   0.3750000), wk =   0.0468750
        k(   26) = (   0.3750000  -0.8750000   0.8750000), wk =   0.0000000
        k(   27) = (   0.3750000   0.3750000   0.6250000), wk =   0.0937500
        k(   28) = (   0.8750000  -0.1250000   1.1250000), wk =   0.0000000
        k(   29) = (   0.6250000   0.3750000  -0.3750000), wk =   0.0468750
        k(   30) = (   1.1250000  -0.1250000   0.1250000), wk =   0.0000000
        k(   31) = (   0.1250000   0.1250000   0.3750000), wk =   0.0937500
        k(   32) = (   0.6250000  -0.3750000   0.8750000), wk =   0.0000000
        k(   33) = (   0.3750000   0.1250000  -0.1250000), wk =   0.0468750
        k(   34) = (   0.8750000  -0.3750000   0.3750000), wk =   0.0000000
        k(   35) = (  -0.1250000  -0.6250000  -0.1250000), wk =   0.0468750
        k(   36) = (   0.3750000  -1.1250000   0.3750000), wk =   0.0000000
        k(   37) = (   0.1250000  -0.6250000   0.1250000), wk =   0.0468750
        k(   38) = (   0.6250000  -1.1250000   0.6250000), wk =   0.0000000
        k(   39) = (   0.6250000   0.1250000   0.8750000), wk =   0.0937500
        k(   40) = (   1.1250000  -0.3750000   1.3750000), wk =   0.0000000
        k(   41) = (  -0.8750000   0.1250000   0.6250000), wk =   0.0937500
        k(   42) = (  -0.3750000  -0.3750000   1.1250000), wk =   0.0000000
        k(   43) = (   0.8750000   0.1250000  -0.6250000), wk =   0.0937500
        k(   44) = (   1.3750000  -0.3750000  -0.1250000), wk =   0.0000000
        k(   45) = (   0.3750000  -0.1250000   0.6250000), wk =   0.0937500
        k(   46) = (   0.8750000  -0.6250000   1.1250000), wk =   0.0000000
        k(   47) = (  -0.6250000  -0.1250000   0.3750000), wk =   0.0937500
        k(   48) = (  -0.1250000  -0.6250000   0.8750000), wk =   0.0000000
        k(   49) = (   0.6250000  -0.1250000  -0.3750000), wk =   0.0937500
        k(   50) = (   1.1250000  -0.6250000   0.1250000), wk =   0.0000000
        k(   51) = (  -0.1250000   0.8750000  -0.1250000), wk =   0.0468750
        k(   52) = (   0.3750000   0.3750000   0.3750000), wk =   0.0000000
        k(   53) = (   0.1250000   0.8750000   0.1250000), wk =   0.0468750
        k(   54) = (   0.6250000   0.3750000   0.6250000), wk =   0.0000000
        k(   55) = (   0.3750000  -0.3750000   0.3750000), wk =   0.0156250
        k(   56) = (   0.8750000  -0.8750000   0.8750000), wk =   0.0000000
        k(   57) = (   0.3750000   0.3750000   1.1250000), wk =   0.0937500
        k(   58) = (   0.8750000  -0.1250000   1.6250000), wk =   0.0000000
        k(   59) = (   1.1250000   0.3750000  -0.3750000), wk =   0.0468750
        k(   60) = (   1.6250000  -0.1250000   0.1250000), wk =   0.0000000

     Dense  grid:     2891 G-vectors     FFT dimensions: (  20,  20,  20)

     Estimated max dynamical RAM per process >       0.33MB

     Estimated total allocated dynamical RAM >       1.34MB

     Check: negative/imaginary core charge=   -0.000006    0.000000

     The potential is recalculated from file :
     ./_ph0/silicon.10.42.save/charge-density.dat

     Starting wfc are    8 atomic wfcs

     Band Structure Calculation
     Davidson diagonalization with overlap

     ethr =  1.25E-10,  avg # of iterations = 11.7

     total cpu time spent up to now is        1.3 secs

     End of band structure calculation

          k =-0.1250 0.1250 0.1250 (   353 PWs)   bands (ev):

    -5.7214   4.1418   5.4538   5.4538

          k = 0.3750-0.3750 0.6250 (   366 PWs)   bands (ev):

    -3.6185  -0.8270   3.5221   4.2289

          k =-0.3750 0.3750-0.1250 (   362 PWs)   bands (ev):

    -4.7207   1.1916   3.5154   4.9784

          k = 0.1250-0.1250 0.3750 (   359 PWs)   bands (ev):

    -5.2061   2.5349   4.4733   4.5227

          k = 0.3750-0.3750 0.6250 (   366 PWs)   bands (ev):

    -3.6185  -0.8270   3.5221   4.2289

          k = 0.8750-0.8750 1.1250 (   353 PWs)   bands (ev):

    -5.7214   4.1418   5.4538   5.4538

          k = 0.1250-0.1250 0.3750 (   359 PWs)   bands (ev):

    -5.2061   2.5349   4.4733   4.5227

          k = 0.6250-0.6250 0.8750 (   362 PWs)   bands (ev):

    -4.7207   1.1916   3.5154   4.9784

          k =-0.1250 0.6250 0.1250 (   361 PWs)   bands (ev):

    -4.1999   0.8317   3.1815   3.6191

          k = 0.3750 0.1250 0.6250 (   365 PWs)   bands (ev):

    -3.7981  -0.0055   2.5523   3.8889

          k = 0.6250-0.1250 0.8750 (   369 PWs)   bands (ev):

    -2.6081  -1.0926   1.8755   2.9185

          k = 1.1250-0.6250 1.3750 (   362 PWs)   bands (ev):

    -4.7207   1.1916   3.5154   4.9784

          k = 0.3750 0.1250 0.6250 (   365 PWs)   bands (ev):

    -3.7981  -0.0055   2.5523   3.8889

          k = 0.8750-0.3750 1.1250 (   361 PWs)   bands (ev):

    -4.1999   0.8317   3.1815   3.6191

          k =-0.1250-0.8750 0.1250 (   364 PWs)   bands (ev):

    -2.7642  -1.0008   2.4643   3.1622

          k = 0.3750-1.3750 0.6250 (   366 PWs)   bands (ev):

    -3.6185  -0.8270   3.5221   4.2289

          k =-0.3750 0.3750 0.3750 (   359 PWs)   bands (ev):

    -4.3013  -0.0554   4.6793   4.6793

          k = 0.1250-0.1250 0.8750 (   364 PWs)   bands (ev):

    -2.7642  -1.0008   2.4643   3.1622

          k = 0.3750-0.3750 1.1250 (   369 PWs)   bands (ev):

    -3.1341  -0.7743   1.9219   3.9213

          k = 0.8750-0.8750 1.6250 (   361 PWs)   bands (ev):

    -4.1999   0.8317   3.1815   3.6191

          k = 0.1250-0.1250 0.1250 (   353 PWs)   bands (ev):

    -5.7214   4.1418   5.4538   5.4538

          k = 0.6250-0.6250 0.6250 (   359 PWs)   bands (ev):

    -4.3013  -0.0554   4.6793   4.6793

          k =-0.3750-0.3750-0.1250 (   362 PWs)   bands (ev):

    -4.7207   1.1916   3.5154   4.9784

          k = 0.1250-0.8750 0.3750 (   369 PWs)   bands (ev):

    -2.6081  -1.0926   1.8755   2.9185

          k =-0.1250-0.3750 0.3750 (   362 PWs)   bands (ev):

    -4.7207   1.1916   3.5154   4.9784

          k = 0.3750-0.8750 0.8750 (   361 PWs)   bands (ev):

    -4.1999   0.8317   3.1815   3.6191

          k = 0.3750 0.3750 0.6250 (   366 PWs)   bands (ev):

    -3.6185  -0.8270   3.5221   4.2289

          k = 0.8750-0.1250 1.1250 (   364 PWs)   bands (ev):

    -2.7642  -1.0008   2.4643   3.1622

          k = 0.6250 0.3750-0.3750 (   366 PWs)   bands (ev):

    -3.6185  -0.8270   3.5221   4.2289

          k = 1.1250-0.1250 0.1250 (   364 PWs)   bands (ev):

    -2.7642  -1.0008   2.4643   3.1622

          k = 0.1250 0.1250 0.3750 (   359 PWs)   bands (ev):

    -5.2061   2.5349   4.4733   4.5227

          k = 0.6250-0.3750 0.8750 (   365 PWs)   bands (ev):

    -3.7981  -0.0055   2.5523   3.8889

          k = 0.3750 0.1250-0.1250 (   359 PWs)   bands (ev):

    -5.2061   2.5349   4.4733   4.5227

          k = 0.8750-0.3750 0.3750 (   369 PWs)   bands (ev):

    -3.1341  -0.7743   1.9219   3.9213

          k =-0.1250-0.6250-0.1250 (   361 PWs)   bands (ev):

    -4.1999   0.8317   3.1815   3.6191

          k = 0.3750-1.1250 0.3750 (   369 PWs)   bands (ev):

    -3.1341  -0.7743   1.9219   3.9213

          k = 0.1250-0.6250 0.1250 (   361 PWs)   bands (ev):

    -4.1999   0.8317   3.1815   3.6191

          k = 0.6250-1.1250 0.6250 (   362 PWs)   bands (ev):

    -4.7207   1.1916   3.5154   4.9784

          k = 0.6250 0.1250 0.8750 (   369 PWs)   bands (ev):

    -2.6081  -1.0926   1.8755   2.9185

          k = 1.1250-0.3750 1.3750 (   365 PWs)   bands (ev):

    -3.7981  -0.0055   2.5523   3.8889

          k =-0.8750 0.1250 0.6250 (   369 PWs)   bands (ev):

    -2.6081  -1.0926   1.8755   2.9185

          k =-0.3750-0.3750 1.1250 (   369 PWs)   bands (ev):

    -3.1341  -0.7743   1.9219   3.9213

          k = 0.8750 0.1250-0.6250 (   369 PWs)   bands (ev):

    -2.6081  -1.0926   1.8755   2.9185

          k = 1.3750-0.3750-0.1250 (   365 PWs)   bands (ev):

    -3.7981  -0.0055   2.5523   3.8889

          k = 0.3750-0.1250 0.6250 (   365 PWs)   bands (ev):

    -3.7981  -0.0055   2.5523   3.8889

          k = 0.8750-0.6250 1.1250 (   359 PWs)   bands (ev):

    -5.2061   2.5349   4.4733   4.5227

          k =-0.6250-0.1250 0.3750 (   365 PWs)   bands (ev):

    -3.7981  -0.0055   2.5523   3.8889

          k =-0.1250-0.6250 0.8750 (   369 PWs)   bands (ev):

    -2.6081  -1.0926   1.8755   2.9185

          k = 0.6250-0.1250-0.3750 (   365 PWs)   bands (ev):

    -3.7981  -0.0055   2.5523   3.8889

          k = 1.1250-0.6250 0.1250 (   369 PWs)   bands (ev):

    -2.6081  -1.0926   1.8755   2.9185

          k =-0.1250 0.8750-0.1250 (   364 PWs)   bands (ev):

    -2.7642  -1.0008   2.4643   3.1622

          k = 0.3750 0.3750 0.3750 (   359 PWs)   bands (ev):

    -4.3013  -0.0554   4.6793   4.6793

          k = 0.1250 0.8750 0.1250 (   364 PWs)   bands (ev):

    -2.7642  -1.0008   2.4643   3.1622

          k = 0.6250 0.3750 0.6250 (   366 PWs)   bands (ev):

    -3.6185  -0.8270   3.5221   4.2289

          k = 0.3750-0.3750 0.3750 (   359 PWs)   bands (ev):

    -4.3013  -0.0554   4.6793   4.6793

          k = 0.8750-0.8750 0.8750 (   353 PWs)   bands (ev):

    -5.7214   4.1418   5.4538   5.4538

          k = 0.3750 0.3750 1.1250 (   369 PWs)   bands (ev):

    -3.1341  -0.7743   1.9219   3.9213

          k = 0.8750-0.1250 1.6250 (   369 PWs)   bands (ev):

    -2.6081  -1.0926   1.8755   2.9185

          k = 1.1250 0.3750-0.3750 (   369 PWs)   bands (ev):

    -3.1341  -0.7743   1.9219   3.9213

          k = 1.6250-0.1250 0.1250 (   359 PWs)   bands (ev):

    -5.2061   2.5349   4.4733   4.5227

     highest occupied level (ev):     5.4538

     Writing output data file silicon.10.42.save

                                                                                

     bravais-lattice index     =            2
     lattice parameter (alat)  =      10.4200  a.u.
     unit-cell volume          =     282.8415 (a.u.)^3
     number of atoms/cell      =            2
     number of atomic types    =            1
     kinetic-energy cut-off    =      18.0000  Ry
     charge density cut-off    =      72.0000  Ry
     convergence threshold     =      1.0E-12
     beta                      =       0.7000
     number of iterations used =            4
     Exchange-correlation      = SLA  PW   PBE  PBE ( 1  4  3  4 0 0)


     celldm(1)=   10.42000  celldm(2)=    0.00000  celldm(3)=    0.00000
     celldm(4)=    0.00000  celldm(5)=    0.00000  celldm(6)=    0.00000

     crystal axes: (cart. coord. in units of alat)
               a(1) = ( -0.5000  0.0000  0.5000 )  
               a(2) = (  0.0000  0.5000  0.5000 )  
               a(3) = ( -0.5000  0.5000  0.0000 )  

     reciprocal axes: (cart. coord. in units 2 pi/alat)
               b(1) = ( -1.0000 -1.0000  1.0000 )  
               b(2) = (  1.0000  1.0000  1.0000 )  
               b(3) = ( -1.0000  1.0000 -1.0000 )  


     Atoms inside the unit cell: 

     Cartesian axes

     site n.  atom      mass           positions (alat units)
        1     Si  28.0860   tau(    1) = (    0.00000    0.00000    0.00000  )
        2     Si  28.0860   tau(    2) = (    0.25000    0.25000    0.25000  )

     Computing dynamical matrix for 
                    q = (   0.5000000  -0.5000000   0.5000000 )

     13 Sym.Ops. (with q -> -q+G )


     G cutoff =  198.0196  (    722 G-vectors)     FFT grid: ( 20, 20, 20)
     number of k points=    60

     PseudoPot. # 1 for Si read from file:
     /home/max/quantum_espresso/qe-6.1/pseudo/si_pbe_v1.uspp.F.UPF.txt
     MD5 check sum: a056efeee980c13900f22a371efd63c1
     Pseudo is Ultrasoft + core correction, Zval =  4.0
     Generated by new atomic code, or converted to UPF format
     Using radial grid of  899 points,  6 beta functions with: 
                l(1) =   0
                l(2) =   0
                l(3) =   1
                l(4) =   1
                l(5) =   2
                l(6) =   2
     Q(r) pseudized with  8 coefficients,  rinner =    0.900   0.900   0.900
                                                       0.900   0.900


     Atomic displacements:
     There are   4 irreducible representations

     Representation     1      1 modes -  To be done

     Representation     2      1 modes -  To be done

     Representation     3      2 modes -  To be done

     Representation     4      2 modes -  To be done



     Alpha used in Ewald sum =   0.7000
     PHONON       :    14.73s CPU        15.36s WALL



     Representation #  1 mode #   1

     Self-consistent Calculation

      iter #   1 total cpu time :    15.5 secs   av.it.:   4.8
      thresh= 1.000E-02 alpha_mix =  0.700 |ddv_scf|^2 =  2.419E-05

      iter #   2 total cpu time :    15.6 secs   av.it.:   8.4
      thresh= 4.918E-04 alpha_mix =  0.700 |ddv_scf|^2 =  2.222E-05

      iter #   3 total cpu time :    15.8 secs   av.it.:   7.5
      thresh= 4.714E-04 alpha_mix =  0.700 |ddv_scf|^2 =  3.863E-08

      iter #   4 total cpu time :    15.9 secs   av.it.:   7.6
      thresh= 1.965E-05 alpha_mix =  0.700 |ddv_scf|^2 =  1.359E-10

      iter #   5 total cpu time :    16.0 secs   av.it.:   7.9
      thresh= 1.166E-06 alpha_mix =  0.700 |ddv_scf|^2 =  3.939E-12

      iter #   6 total cpu time :    16.2 secs   av.it.:   7.8
      thresh= 1.985E-07 alpha_mix =  0.700 |ddv_scf|^2 =  7.367E-14

     End of self-consistent calculation

     Convergence has been achieved 


     Representation #  2 mode #   2

     Self-consistent Calculation

      iter #   1 total cpu time :    16.3 secs   av.it.:   5.6
      thresh= 1.000E-02 alpha_mix =  0.700 |ddv_scf|^2 =  3.383E-04

      iter #   2 total cpu time :    16.4 secs   av.it.:   8.3
      thresh= 1.839E-03 alpha_mix =  0.700 |ddv_scf|^2 =  1.048E-03

      iter #   3 total cpu time :    16.6 secs   av.it.:   7.1
      thresh= 3.237E-03 alpha_mix =  0.700 |ddv_scf|^2 =  1.448E-07

      iter #   4 total cpu time :    16.7 secs   av.it.:   8.2
      thresh= 3.806E-05 alpha_mix =  0.700 |ddv_scf|^2 =  1.015E-08

      iter #   5 total cpu time :    16.9 secs   av.it.:   8.4
      thresh= 1.008E-05 alpha_mix =  0.700 |ddv_scf|^2 =  1.441E-10

      iter #   6 total cpu time :    17.0 secs   av.it.:   8.2
      thresh= 1.200E-06 alpha_mix =  0.700 |ddv_scf|^2 =  3.403E-12

      iter #   7 total cpu time :    17.1 secs   av.it.:   7.7
      thresh= 1.845E-07 alpha_mix =  0.700 |ddv_scf|^2 =  1.051E-14

     End of self-consistent calculation

     Convergence has been achieved 


     Representation #  3 modes #   3  4

     Self-consistent Calculation

      iter #   1 total cpu time :    17.4 secs   av.it.:   4.7
      thresh= 1.000E-02 alpha_mix =  0.700 |ddv_scf|^2 =  3.448E-07

      iter #   2 total cpu time :    17.7 secs   av.it.:   9.0
      thresh= 5.872E-05 alpha_mix =  0.700 |ddv_scf|^2 =  2.983E-08

      iter #   3 total cpu time :    17.9 secs   av.it.:   8.4
      thresh= 1.727E-05 alpha_mix =  0.700 |ddv_scf|^2 =  5.158E-10

      iter #   4 total cpu time :    18.2 secs   av.it.:   8.9
      thresh= 2.271E-06 alpha_mix =  0.700 |ddv_scf|^2 =  6.493E-12

      iter #   5 total cpu time :    18.5 secs   av.it.:   8.7
      thresh= 2.548E-07 alpha_mix =  0.700 |ddv_scf|^2 =  3.642E-14

     End of self-consistent calculation

     Convergence has been achieved 


     Representation #  4 modes #   5  6

     Self-consistent Calculation

      iter #   1 total cpu time :    18.7 secs   av.it.:   5.0
      thresh= 1.000E-02 alpha_mix =  0.700 |ddv_scf|^2 =  9.434E-07

      iter #   2 total cpu time :    19.1 secs   av.it.:   9.5
      thresh= 9.713E-05 alpha_mix =  0.700 |ddv_scf|^2 =  7.508E-08

      iter #   3 total cpu time :    19.4 secs   av.it.:   9.3
      thresh= 2.740E-05 alpha_mix =  0.700 |ddv_scf|^2 =  4.529E-09

      iter #   4 total cpu time :    19.6 secs   av.it.:   8.5
      thresh= 6.730E-06 alpha_mix =  0.700 |ddv_scf|^2 =  6.625E-12

      iter #   5 total cpu time :    19.9 secs   av.it.:   8.9
      thresh= 2.574E-07 alpha_mix =  0.700 |ddv_scf|^2 =  2.604E-14

     End of self-consistent calculation

     Convergence has been achieved 

     Number of q in the star =    4
     List of q in the star:
          1   0.500000000  -0.500000000   0.500000000
          2   0.500000000   0.500000000   0.500000000
          3  -0.500000000   0.500000000   0.500000000
          4   0.500000000   0.500000000  -0.500000000

     Diagonalizing the dynamical matrix

     q = (    0.500000000  -0.500000000   0.500000000 ) 

 **************************************************************************
     freq (    1) =       5.136204 [THz] =     171.325331 [cm-1]
     freq (    2) =       5.136204 [THz] =     171.325331 [cm-1]
     freq (    3) =      11.818710 [THz] =     394.229737 [cm-1]
     freq (    4) =      12.176551 [THz] =     406.166010 [cm-1]
     freq (    5) =      14.629658 [THz] =     487.992874 [cm-1]
     freq (    6) =      14.629658 [THz] =     487.992874 [cm-1]
 **************************************************************************

     Calculation of q =    0.0000000   0.5000000   0.0000000

   Info: using nr1, nr2, nr3 values from input

   Info: using nr1, nr2, nr3 values from input

     Parallelization info
     --------------------
     sticks:   dense  smooth     PW     G-vecs:    dense   smooth      PW
     Min          66      66     27                  722      722     181
     Max          67      67     28                  724      724     182
     Sum         265     265    109                 2891     2891     725



     bravais-lattice index     =            2
     lattice parameter (alat)  =      10.4200  a.u.
     unit-cell volume          =     282.8415 (a.u.)^3
     number of atoms/cell      =            2
     number of atomic types    =            1
     number of electrons       =         8.00
     number of Kohn-Sham states=            4
     kinetic-energy cutoff     =      18.0000  Ry
     charge density cutoff     =      72.0000  Ry
     Exchange-correlation      = SLA  PW   PBE  PBE ( 1  4  3  4 0 0)

     celldm(1)=  10.420000  celldm(2)=   0.000000  celldm(3)=   0.000000
     celldm(4)=   0.000000  celldm(5)=   0.000000  celldm(6)=   0.000000

     crystal axes: (cart. coord. in units of alat)
               a(1) = (  -0.500000   0.000000   0.500000 )  
               a(2) = (   0.000000   0.500000   0.500000 )  
               a(3) = (  -0.500000   0.500000   0.000000 )  

     reciprocal axes: (cart. coord. in units 2 pi/alat)
               b(1) = ( -1.000000 -1.000000  1.000000 )  
               b(2) = (  1.000000  1.000000  1.000000 )  
               b(3) = ( -1.000000  1.000000 -1.000000 )  


     PseudoPot. # 1 for Si read from file:
     /home/max/quantum_espresso/qe-6.1/pseudo/si_pbe_v1.uspp.F.UPF.txt
     MD5 check sum: a056efeee980c13900f22a371efd63c1
     Pseudo is Ultrasoft + core correction, Zval =  4.0
     Generated by new atomic code, or converted to UPF format
     Using radial grid of  899 points,  6 beta functions with: 
                l(1) =   0
                l(2) =   0
                l(3) =   1
                l(4) =   1
                l(5) =   2
                l(6) =   2
     Q(r) pseudized with  8 coefficients,  rinner =    0.900   0.900   0.900
                                                       0.900   0.900

     atomic species   valence    mass     pseudopotential
        Si             4.00    28.08600     Si( 1.00)

     48 Sym. Ops., with inversion, found



   Cartesian axes

     site n.     atom                  positions (alat units)
         1           Si  tau(   1) = (   0.0000000   0.0000000   0.0000000  )
         2           Si  tau(   2) = (   0.2500000   0.2500000   0.2500000  )

     number of k points=    80
                       cart. coord. in units 2pi/alat
        k(    1) = (  -0.1250000   0.1250000   0.1250000), wk =   0.0312500
        k(    2) = (  -0.1250000   0.6250000   0.1250000), wk =   0.0000000
        k(    3) = (  -0.3750000   0.3750000  -0.1250000), wk =   0.0625000
        k(    4) = (  -0.3750000   0.8750000  -0.1250000), wk =   0.0000000
        k(    5) = (   0.3750000  -0.3750000   0.6250000), wk =   0.0625000
        k(    6) = (   0.3750000   0.1250000   0.6250000), wk =   0.0000000
        k(    7) = (   0.1250000  -0.1250000   0.3750000), wk =   0.0625000
        k(    8) = (   0.1250000   0.3750000   0.3750000), wk =   0.0000000
        k(    9) = (  -0.1250000   0.6250000   0.1250000), wk =   0.0312500
        k(   10) = (  -0.1250000   1.1250000   0.1250000), wk =   0.0000000
        k(   11) = (   0.6250000  -0.1250000   0.8750000), wk =   0.0625000
        k(   12) = (   0.6250000   0.3750000   0.8750000), wk =   0.0000000
        k(   13) = (   0.3750000   0.1250000   0.6250000), wk =   0.0625000
        k(   14) = (   0.3750000   0.6250000   0.6250000), wk =   0.0000000
        k(   15) = (  -0.1250000  -0.8750000   0.1250000), wk =   0.0312500
        k(   16) = (  -0.1250000  -0.3750000   0.1250000), wk =   0.0000000
        k(   17) = (  -0.3750000   0.3750000   0.3750000), wk =   0.0312500
        k(   18) = (  -0.3750000   0.8750000   0.3750000), wk =   0.0000000
        k(   19) = (   0.3750000  -0.3750000   1.1250000), wk =   0.0625000
        k(   20) = (   0.3750000   0.1250000   1.1250000), wk =   0.0000000
        k(   21) = (  -0.1250000  -0.1250000   0.1250000), wk =   0.0312500
        k(   22) = (  -0.1250000   0.3750000   0.1250000), wk =   0.0000000
        k(   23) = (   0.1250000  -0.3750000   0.3750000), wk =   0.0625000
        k(   24) = (   0.1250000   0.1250000   0.3750000), wk =   0.0000000
        k(   25) = (   0.3750000  -0.1250000   0.3750000), wk =   0.0312500
        k(   26) = (   0.3750000   0.3750000   0.3750000), wk =   0.0000000
        k(   27) = (   0.3750000   0.1250000   0.3750000), wk =   0.0312500
        k(   28) = (   0.3750000   0.6250000   0.3750000), wk =   0.0000000
        k(   29) = (  -0.6250000   0.3750000  -0.3750000), wk =   0.0625000
        k(   30) = (  -0.6250000   0.8750000  -0.3750000), wk =   0.0000000
        k(   31) = (  -0.3750000   0.6250000  -0.3750000), wk =   0.0312500
        k(   32) = (  -0.3750000   1.1250000  -0.3750000), wk =   0.0000000
        k(   33) = (  -0.3750000  -0.6250000  -0.3750000), wk =   0.0312500
        k(   34) = (  -0.3750000  -0.1250000  -0.3750000), wk =   0.0000000
        k(   35) = (  -0.3750000   0.1250000  -0.1250000), wk =   0.0625000
        k(   36) = (  -0.3750000   0.6250000  -0.1250000), wk =   0.0000000
        k(   37) = (  -0.1250000   0.3750000  -0.1250000), wk =   0.0312500
        k(   38) = (  -0.1250000   0.8750000  -0.1250000), wk =   0.0000000
        k(   39) = (  -0.1250000  -0.3750000  -0.1250000), wk =   0.0312500
        k(   40) = (  -0.1250000   0.1250000  -0.1250000), wk =   0.0000000
        k(   41) = (  -0.1250000  -0.6250000   0.1250000), wk =   0.0312500
        k(   42) = (  -0.1250000  -0.1250000   0.1250000), wk =   0.0000000
        k(   43) = (   0.6250000  -0.1250000  -0.1250000), wk =   0.0625000
        k(   44) = (   0.6250000   0.3750000  -0.1250000), wk =   0.0000000
        k(   45) = (   0.6250000   0.1250000   0.1250000), wk =   0.0625000
        k(   46) = (   0.6250000   0.6250000   0.1250000), wk =   0.0000000
        k(   47) = (  -0.8750000   0.1250000  -0.6250000), wk =   0.0625000
        k(   48) = (  -0.8750000   0.6250000  -0.6250000), wk =   0.0000000
        k(   49) = (  -0.1250000   0.6250000  -0.8750000), wk =   0.0625000
        k(   50) = (  -0.1250000   1.1250000  -0.8750000), wk =   0.0000000
        k(   51) = (  -0.1250000   0.8750000  -0.6250000), wk =   0.0625000
        k(   52) = (  -0.1250000   1.3750000  -0.6250000), wk =   0.0000000
        k(   53) = (  -0.1250000  -0.8750000  -0.6250000), wk =   0.0625000
        k(   54) = (  -0.1250000  -0.3750000  -0.6250000), wk =   0.0000000
        k(   55) = (   0.8750000  -0.6250000   0.1250000), wk =   0.0625000
        k(   56) = (   0.8750000  -0.1250000   0.1250000), wk =   0.0000000
        k(   57) = (  -0.6250000  -0.1250000  -0.3750000), wk =   0.0625000
        k(   58) = (  -0.6250000   0.3750000  -0.3750000), wk =   0.0000000
        k(   59) = (   0.1250000   0.3750000  -0.6250000), wk =   0.0625000
        k(   60) = (   0.1250000   0.8750000  -0.6250000), wk =   0.0000000
        k(   61) = (   0.1250000   0.6250000  -0.3750000), wk =   0.0625000
        k(   62) = (   0.1250000   1.1250000  -0.3750000), wk =   0.0000000
        k(   63) = (   0.1250000  -0.6250000  -0.3750000), wk =   0.0625000
        k(   64) = (   0.1250000  -0.1250000  -0.3750000), wk =   0.0000000
        k(   65) = (   0.6250000  -0.3750000  -0.1250000), wk =   0.0625000
        k(   66) = (   0.6250000   0.1250000  -0.1250000), wk =   0.0000000
        k(   67) = (  -0.1250000   0.8750000   0.1250000), wk =   0.0312500
        k(   68) = (  -0.1250000   1.3750000   0.1250000), wk =   0.0000000
        k(   69) = (  -0.8750000  -0.1250000  -0.1250000), wk =   0.0625000
        k(   70) = (  -0.8750000   0.3750000  -0.1250000), wk =   0.0000000
        k(   71) = (  -0.8750000   0.1250000   0.1250000), wk =   0.0625000
        k(   72) = (  -0.8750000   0.6250000   0.1250000), wk =   0.0000000
        k(   73) = (  -0.3750000  -0.3750000   0.3750000), wk =   0.0312500
        k(   74) = (  -0.3750000   0.1250000   0.3750000), wk =   0.0000000
        k(   75) = (  -1.1250000   0.3750000  -0.3750000), wk =   0.0625000
        k(   76) = (  -1.1250000   0.8750000  -0.3750000), wk =   0.0000000
        k(   77) = (  -0.3750000   1.1250000  -0.3750000), wk =   0.0312500
        k(   78) = (  -0.3750000   1.6250000  -0.3750000), wk =   0.0000000
        k(   79) = (  -0.3750000  -1.1250000  -0.3750000), wk =   0.0312500
        k(   80) = (  -0.3750000  -0.6250000  -0.3750000), wk =   0.0000000

     Dense  grid:     2891 G-vectors     FFT dimensions: (  20,  20,  20)

     Estimated max dynamical RAM per process >       0.33MB

     Estimated total allocated dynamical RAM >       1.34MB

     Check: negative/imaginary core charge=   -0.000006    0.000000

     The potential is recalculated from file :
     ./_ph0/silicon.10.42.save/charge-density.dat

     Starting wfc are    8 atomic wfcs

     Band Structure Calculation
     Davidson diagonalization with overlap

     ethr =  1.25E-10,  avg # of iterations = 11.7

     total cpu time spent up to now is        1.9 secs

     End of band structure calculation

          k =-0.1250 0.1250 0.1250 (   353 PWs)   bands (ev):

    -5.7214   4.1418   5.4538   5.4538

          k =-0.1250 0.6250 0.1250 (   361 PWs)   bands (ev):

    -4.1999   0.8317   3.1815   3.6191

          k =-0.3750 0.3750-0.1250 (   362 PWs)   bands (ev):

    -4.7207   1.1916   3.5154   4.9784

          k =-0.3750 0.8750-0.1250 (   369 PWs)   bands (ev):

    -2.6081  -1.0926   1.8755   2.9185

          k = 0.3750-0.3750 0.6250 (   366 PWs)   bands (ev):

    -3.6185  -0.8270   3.5221   4.2289

          k = 0.3750 0.1250 0.6250 (   365 PWs)   bands (ev):

    -3.7981  -0.0055   2.5523   3.8889

          k = 0.1250-0.1250 0.3750 (   359 PWs)   bands (ev):

    -5.2061   2.5349   4.4733   4.5227

          k = 0.1250 0.3750 0.3750 (   362 PWs)   bands (ev):

    -4.7207   1.1916   3.5154   4.9784

          k =-0.1250 0.6250 0.1250 (   361 PWs)   bands (ev):

    -4.1999   0.8317   3.1815   3.6191

          k =-0.1250 1.1250 0.1250 (   364 PWs)   bands (ev):

    -2.7642  -1.0008   2.4643   3.1622

          k = 0.6250-0.1250 0.8750 (   369 PWs)   bands (ev):

    -2.6081  -1.0926   1.8755   2.9185

          k = 0.6250 0.3750 0.8750 (   365 PWs)   bands (ev):

    -3.7981  -0.0055   2.5523   3.8889

          k = 0.3750 0.1250 0.6250 (   365 PWs)   bands (ev):

    -3.7981  -0.0055   2.5523   3.8889

          k = 0.3750 0.6250 0.6250 (   366 PWs)   bands (ev):

    -3.6185  -0.8270   3.5221   4.2289

          k =-0.1250-0.8750 0.1250 (   364 PWs)   bands (ev):

    -2.7642  -1.0008   2.4643   3.1622

          k =-0.1250-0.3750 0.1250 (   359 PWs)   bands (ev):

    -5.2061   2.5349   4.4733   4.5227

          k =-0.3750 0.3750 0.3750 (   359 PWs)   bands (ev):

    -4.3013  -0.0554   4.6793   4.6793

          k =-0.3750 0.8750 0.3750 (   369 PWs)   bands (ev):

    -3.1341  -0.7743   1.9219   3.9213

          k = 0.3750-0.3750 1.1250 (   369 PWs)   bands (ev):

    -3.1341  -0.7743   1.9219   3.9213

          k = 0.3750 0.1250 1.1250 (   369 PWs)   bands (ev):

    -2.6081  -1.0926   1.8755   2.9185

          k =-0.1250-0.1250 0.1250 (   353 PWs)   bands (ev):

    -5.7214   4.1418   5.4538   5.4538

          k =-0.1250 0.3750 0.1250 (   359 PWs)   bands (ev):

    -5.2061   2.5349   4.4733   4.5227

          k = 0.1250-0.3750 0.3750 (   362 PWs)   bands (ev):

    -4.7207   1.1916   3.5154   4.9784

          k = 0.1250 0.1250 0.3750 (   359 PWs)   bands (ev):

    -5.2061   2.5349   4.4733   4.5227

          k = 0.3750-0.1250 0.3750 (   362 PWs)   bands (ev):

    -4.7207   1.1916   3.5154   4.9784

          k = 0.3750 0.3750 0.3750 (   359 PWs)   bands (ev):

    -4.3013  -0.0554   4.6793   4.6793

          k = 0.3750 0.1250 0.3750 (   362 PWs)   bands (ev):

    -4.7207   1.1916   3.5154   4.9784

          k = 0.3750 0.6250 0.3750 (   366 PWs)   bands (ev):

    -3.6185  -0.8270   3.5221   4.2289

          k =-0.6250 0.3750-0.3750 (   366 PWs)   bands (ev):

    -3.6185  -0.8270   3.5221   4.2289

          k =-0.6250 0.8750-0.3750 (   365 PWs)   bands (ev):

    -3.7981  -0.0055   2.5523   3.8889

          k =-0.3750 0.6250-0.3750 (   366 PWs)   bands (ev):

    -3.6185  -0.8270   3.5221   4.2289

          k =-0.3750 1.1250-0.3750 (   369 PWs)   bands (ev):

    -3.1341  -0.7743   1.9219   3.9213

          k =-0.3750-0.6250-0.3750 (   366 PWs)   bands (ev):

    -3.6185  -0.8270   3.5221   4.2289

          k =-0.3750-0.1250-0.3750 (   362 PWs)   bands (ev):

    -4.7207   1.1916   3.5154   4.9784

          k =-0.3750 0.1250-0.1250 (   359 PWs)   bands (ev):

    -5.2061   2.5349   4.4733   4.5227

          k =-0.3750 0.6250-0.1250 (   365 PWs)   bands (ev):

    -3.7981  -0.0055   2.5523   3.8889

          k =-0.1250 0.3750-0.1250 (   359 PWs)   bands (ev):

    -5.2061   2.5349   4.4733   4.5227

          k =-0.1250 0.8750-0.1250 (   364 PWs)   bands (ev):

    -2.7642  -1.0008   2.4643   3.1622

          k =-0.1250-0.3750-0.1250 (   359 PWs)   bands (ev):

    -5.2061   2.5349   4.4733   4.5227

          k =-0.1250 0.1250-0.1250 (   353 PWs)   bands (ev):

    -5.7214   4.1418   5.4538   5.4538

          k =-0.1250-0.6250 0.1250 (   361 PWs)   bands (ev):

    -4.1999   0.8317   3.1815   3.6191

          k =-0.1250-0.1250 0.1250 (   353 PWs)   bands (ev):

    -5.7214   4.1418   5.4538   5.4538

          k = 0.6250-0.1250-0.1250 (   361 PWs)   bands (ev):

    -4.1999   0.8317   3.1815   3.6191

          k = 0.6250 0.3750-0.1250 (   365 PWs)   bands (ev):

    -3.7981  -0.0055   2.5523   3.8889

          k = 0.6250 0.1250 0.1250 (   361 PWs)   bands (ev):

    -4.1999   0.8317   3.1815   3.6191

          k = 0.6250 0.6250 0.1250 (   369 PWs)   bands (ev):

    -3.1341  -0.7743   1.9219   3.9213

          k =-0.8750 0.1250-0.6250 (   369 PWs)   bands (ev):

    -2.6081  -1.0926   1.8755   2.9185

          k =-0.8750 0.6250-0.6250 (   362 PWs)   bands (ev):

    -4.7207   1.1916   3.5154   4.9784

          k =-0.1250 0.6250-0.8750 (   369 PWs)   bands (ev):

    -2.6081  -1.0926   1.8755   2.9185

          k =-0.1250 1.1250-0.8750 (   364 PWs)   bands (ev):

    -2.7642  -1.0008   2.4643   3.1622

          k =-0.1250 0.8750-0.6250 (   369 PWs)   bands (ev):

    -2.6081  -1.0926   1.8755   2.9185

          k =-0.1250 1.3750-0.6250 (   369 PWs)   bands (ev):

    -3.1341  -0.7743   1.9219   3.9213

          k =-0.1250-0.8750-0.6250 (   369 PWs)   bands (ev):

    -2.6081  -1.0926   1.8755   2.9185

          k =-0.1250-0.3750-0.6250 (   365 PWs)   bands (ev):

    -3.7981  -0.0055   2.5523   3.8889

          k = 0.8750-0.6250 0.1250 (   369 PWs)   bands (ev):

    -2.6081  -1.0926   1.8755   2.9185

          k = 0.8750-0.1250 0.1250 (   364 PWs)   bands (ev):

    -2.7642  -1.0008   2.4643   3.1622

          k =-0.6250-0.1250-0.3750 (   365 PWs)   bands (ev):

    -3.7981  -0.0055   2.5523   3.8889

          k =-0.6250 0.3750-0.3750 (   366 PWs)   bands (ev):

    -3.6185  -0.8270   3.5221   4.2289

          k = 0.1250 0.3750-0.6250 (   365 PWs)   bands (ev):

    -3.7981  -0.0055   2.5523   3.8889

          k = 0.1250 0.8750-0.6250 (   369 PWs)   bands (ev):

    -2.6081  -1.0926   1.8755   2.9185

          k = 0.1250 0.6250-0.3750 (   365 PWs)   bands (ev):

    -3.7981  -0.0055   2.5523   3.8889

          k = 0.1250 1.1250-0.3750 (   369 PWs)   bands (ev):

    -2.6081  -1.0926   1.8755   2.9185

          k = 0.1250-0.6250-0.3750 (   365 PWs)   bands (ev):

    -3.7981  -0.0055   2.5523   3.8889

          k = 0.1250-0.1250-0.3750 (   359 PWs)   bands (ev):

    -5.2061   2.5349   4.4733   4.5227

          k = 0.6250-0.3750-0.1250 (   365 PWs)   bands (ev):

    -3.7981  -0.0055   2.5523   3.8889

          k = 0.6250 0.1250-0.1250 (   361 PWs)   bands (ev):

    -4.1999   0.8317   3.1815   3.6191

          k =-0.1250 0.8750 0.1250 (   364 PWs)   bands (ev):

    -2.7642  -1.0008   2.4643   3.1622

          k =-0.1250 1.3750 0.1250 (   361 PWs)   bands (ev):

    -4.1999   0.8317   3.1815   3.6191

          k =-0.8750-0.1250-0.1250 (   364 PWs)   bands (ev):

    -2.7642  -1.0008   2.4643   3.1622

          k =-0.8750 0.3750-0.1250 (   369 PWs)   bands (ev):

    -2.6081  -1.0926   1.8755   2.9185

          k =-0.8750 0.1250 0.1250 (   364 PWs)   bands (ev):

    -2.7642  -1.0008   2.4643   3.1622

          k =-0.8750 0.6250 0.1250 (   369 PWs)   bands (ev):

    -2.6081  -1.0926   1.8755   2.9185

          k =-0.3750-0.3750 0.3750 (   359 PWs)   bands (ev):

    -4.3013  -0.0554   4.6793   4.6793

          k =-0.3750 0.1250 0.3750 (   362 PWs)   bands (ev):

    -4.7207   1.1916   3.5154   4.9784

          k =-1.1250 0.3750-0.3750 (   369 PWs)   bands (ev):

    -3.1341  -0.7743   1.9219   3.9213

          k =-1.1250 0.8750-0.3750 (   361 PWs)   bands (ev):

    -4.1999   0.8317   3.1815   3.6191

          k =-0.3750 1.1250-0.3750 (   369 PWs)   bands (ev):

    -3.1341  -0.7743   1.9219   3.9213

          k =-0.3750 1.6250-0.3750 (   359 PWs)   bands (ev):

    -4.3013  -0.0554   4.6793   4.6793

          k =-0.3750-1.1250-0.3750 (   369 PWs)   bands (ev):

    -3.1341  -0.7743   1.9219   3.9213

          k =-0.3750-0.6250-0.3750 (   366 PWs)   bands (ev):

    -3.6185  -0.8270   3.5221   4.2289

     highest occupied level (ev):     5.4538

     Writing output data file silicon.10.42.save

                                                                                

     bravais-lattice index     =            2
     lattice parameter (alat)  =      10.4200  a.u.
     unit-cell volume          =     282.8415 (a.u.)^3
     number of atoms/cell      =            2
     number of atomic types    =            1
     kinetic-energy cut-off    =      18.0000  Ry
     charge density cut-off    =      72.0000  Ry
     convergence threshold     =      1.0E-12
     beta                      =       0.7000
     number of iterations used =            4
     Exchange-correlation      = SLA  PW   PBE  PBE ( 1  4  3  4 0 0)


     celldm(1)=   10.42000  celldm(2)=    0.00000  celldm(3)=    0.00000
     celldm(4)=    0.00000  celldm(5)=    0.00000  celldm(6)=    0.00000

     crystal axes: (cart. coord. in units of alat)
               a(1) = ( -0.5000  0.0000  0.5000 )  
               a(2) = (  0.0000  0.5000  0.5000 )  
               a(3) = ( -0.5000  0.5000  0.0000 )  

     reciprocal axes: (cart. coord. in units 2 pi/alat)
               b(1) = ( -1.0000 -1.0000  1.0000 )  
               b(2) = (  1.0000  1.0000  1.0000 )  
               b(3) = ( -1.0000  1.0000 -1.0000 )  


     Atoms inside the unit cell: 

     Cartesian axes

     site n.  atom      mass           positions (alat units)
        1     Si  28.0860   tau(    1) = (    0.00000    0.00000    0.00000  )
        2     Si  28.0860   tau(    2) = (    0.25000    0.25000    0.25000  )

     Computing dynamical matrix for 
                    q = (   0.0000000   0.5000000   0.0000000 )

      8 Sym.Ops. (no q -> -q+G )


     G cutoff =  198.0196  (    722 G-vectors)     FFT grid: ( 20, 20, 20)
     number of k points=    80

     PseudoPot. # 1 for Si read from file:
     /home/max/quantum_espresso/qe-6.1/pseudo/si_pbe_v1.uspp.F.UPF.txt
     MD5 check sum: a056efeee980c13900f22a371efd63c1
     Pseudo is Ultrasoft + core correction, Zval =  4.0
     Generated by new atomic code, or converted to UPF format
     Using radial grid of  899 points,  6 beta functions with: 
                l(1) =   0
                l(2) =   0
                l(3) =   1
                l(4) =   1
                l(5) =   2
                l(6) =   2
     Q(r) pseudized with  8 coefficients,  rinner =    0.900   0.900   0.900
                                                       0.900   0.900

     Mode symmetry, C_4v (4mm)  point group:


     Atomic displacements:
     There are   4 irreducible representations

     Representation     1      1 modes -A_1  G_1 D_1  To be done

     Representation     2      1 modes -B_2  G_4 D_2'  To be done

     Representation     3      2 modes -E    G_5 D_5  To be done

     Representation     4      2 modes -E    G_5 D_5  To be done



     Alpha used in Ewald sum =   0.7000
     PHONON       :    19.93s CPU        20.81s WALL



     Representation #  1 mode #   1

     Self-consistent Calculation

      iter #   1 total cpu time :    21.0 secs   av.it.:   5.8
      thresh= 1.000E-02 alpha_mix =  0.700 |ddv_scf|^2 =  2.910E-03

      iter #   2 total cpu time :    21.1 secs   av.it.:   7.6
      thresh= 5.395E-03 alpha_mix =  0.700 |ddv_scf|^2 =  3.879E-02

      iter #   3 total cpu time :    21.3 secs   av.it.:   6.7
      thresh= 1.000E-02 alpha_mix =  0.700 |ddv_scf|^2 =  1.484E-07

      iter #   4 total cpu time :    21.5 secs   av.it.:   8.1
      thresh= 3.852E-05 alpha_mix =  0.700 |ddv_scf|^2 =  1.660E-08

      iter #   5 total cpu time :    21.7 secs   av.it.:   7.8
      thresh= 1.288E-05 alpha_mix =  0.700 |ddv_scf|^2 =  6.700E-10

      iter #   6 total cpu time :    21.8 secs   av.it.:   8.0
      thresh= 2.588E-06 alpha_mix =  0.700 |ddv_scf|^2 =  2.593E-12

      iter #   7 total cpu time :    22.0 secs   av.it.:   8.0
      thresh= 1.610E-07 alpha_mix =  0.700 |ddv_scf|^2 =  5.116E-13

     End of self-consistent calculation

     Convergence has been achieved 


     Representation #  2 mode #   2

     Self-consistent Calculation

      iter #   1 total cpu time :    22.2 secs   av.it.:   4.9
      thresh= 1.000E-02 alpha_mix =  0.700 |ddv_scf|^2 =  5.131E-06

      iter #   2 total cpu time :    22.4 secs   av.it.:   8.7
      thresh= 2.265E-04 alpha_mix =  0.700 |ddv_scf|^2 =  1.354E-06

      iter #   3 total cpu time :    22.6 secs   av.it.:   8.5
      thresh= 1.164E-04 alpha_mix =  0.700 |ddv_scf|^2 =  3.222E-08

      iter #   4 total cpu time :    22.7 secs   av.it.:   8.2
      thresh= 1.795E-05 alpha_mix =  0.700 |ddv_scf|^2 =  7.863E-10

      iter #   5 total cpu time :    22.9 secs   av.it.:   8.6
      thresh= 2.804E-06 alpha_mix =  0.700 |ddv_scf|^2 =  7.919E-12

      iter #   6 total cpu time :    23.1 secs   av.it.:   7.9
      thresh= 2.814E-07 alpha_mix =  0.700 |ddv_scf|^2 =  9.796E-14

     End of self-consistent calculation

     Convergence has been achieved 


     Representation #  3 modes #   3  4

     Self-consistent Calculation

      iter #   1 total cpu time :    23.4 secs   av.it.:   5.0
      thresh= 1.000E-02 alpha_mix =  0.700 |ddv_scf|^2 =  9.394E-07

      iter #   2 total cpu time :    23.8 secs   av.it.:   9.8
      thresh= 9.692E-05 alpha_mix =  0.700 |ddv_scf|^2 =  1.192E-07

      iter #   3 total cpu time :    24.2 secs   av.it.:   9.5
      thresh= 3.452E-05 alpha_mix =  0.700 |ddv_scf|^2 =  5.003E-09

      iter #   4 total cpu time :    24.6 secs   av.it.:   8.8
      thresh= 7.073E-06 alpha_mix =  0.700 |ddv_scf|^2 =  8.939E-12

      iter #   5 total cpu time :    25.0 secs   av.it.:   9.1
      thresh= 2.990E-07 alpha_mix =  0.700 |ddv_scf|^2 =  3.050E-13

     End of self-consistent calculation

     Convergence has been achieved 


     Representation #  4 modes #   5  6

     Self-consistent Calculation

      iter #   1 total cpu time :    25.3 secs   av.it.:   5.0
      thresh= 1.000E-02 alpha_mix =  0.700 |ddv_scf|^2 =  9.450E-07

      iter #   2 total cpu time :    25.7 secs   av.it.:   9.8
      thresh= 9.721E-05 alpha_mix =  0.700 |ddv_scf|^2 =  1.199E-07

      iter #   3 total cpu time :    26.1 secs   av.it.:   9.5
      thresh= 3.463E-05 alpha_mix =  0.700 |ddv_scf|^2 =  7.490E-09

      iter #   4 total cpu time :    26.4 secs   av.it.:   8.9
      thresh= 8.655E-06 alpha_mix =  0.700 |ddv_scf|^2 =  1.563E-11

      iter #   5 total cpu time :    26.8 secs   av.it.:   9.2
      thresh= 3.954E-07 alpha_mix =  0.700 |ddv_scf|^2 =  4.635E-14

     End of self-consistent calculation

     Convergence has been achieved 

     Number of q in the star =    6
     List of q in the star:
          1   0.000000000   0.500000000   0.000000000
          2   0.000000000  -0.500000000   0.000000000
          3   0.500000000   0.000000000   0.000000000
          4   0.000000000   0.000000000   0.500000000
          5   0.000000000   0.000000000  -0.500000000
          6  -0.500000000   0.000000000   0.000000000

     Diagonalizing the dynamical matrix

     q = (    0.000000000   0.500000000   0.000000000 ) 

 **************************************************************************
     freq (    1) =       4.398449 [THz] =     146.716481 [cm-1]
     freq (    2) =       4.398449 [THz] =     146.716481 [cm-1]
     freq (    3) =       6.957882 [THz] =     232.089946 [cm-1]
     freq (    4) =      14.135915 [THz] =     471.523362 [cm-1]
     freq (    5) =      14.135915 [THz] =     471.523362 [cm-1]
     freq (    6) =      14.858111 [THz] =     495.613249 [cm-1]
 **************************************************************************

     Mode symmetry, C_4v (4mm)  point group:

     freq (  1 -  2) =        146.7  [cm-1]   --> E    G_5 D_5       
     freq (  3 -  3) =        232.1  [cm-1]   --> A_1  G_1 D_1       
     freq (  4 -  5) =        471.5  [cm-1]   --> E    G_5 D_5       
     freq (  6 -  6) =        495.6  [cm-1]   --> B_2  G_4 D_2'      

     Calculation of q =    0.7500000  -0.2500000   0.7500000

   Info: using nr1, nr2, nr3 values from input

   Info: using nr1, nr2, nr3 values from input

     Parallelization info
     --------------------
     sticks:   dense  smooth     PW     G-vecs:    dense   smooth      PW
     Min          65      65     30                  722      722     216
     Max          67      67     31                  723      723     218
     Sum         265     265    121                 2891     2891     869



     bravais-lattice index     =            2
     lattice parameter (alat)  =      10.4200  a.u.
     unit-cell volume          =     282.8415 (a.u.)^3
     number of atoms/cell      =            2
     number of atomic types    =            1
     number of electrons       =         8.00
     number of Kohn-Sham states=            4
     kinetic-energy cutoff     =      18.0000  Ry
     charge density cutoff     =      72.0000  Ry
     Exchange-correlation      = SLA  PW   PBE  PBE ( 1  4  3  4 0 0)

     celldm(1)=  10.420000  celldm(2)=   0.000000  celldm(3)=   0.000000
     celldm(4)=   0.000000  celldm(5)=   0.000000  celldm(6)=   0.000000

     crystal axes: (cart. coord. in units of alat)
               a(1) = (  -0.500000   0.000000   0.500000 )  
               a(2) = (   0.000000   0.500000   0.500000 )  
               a(3) = (  -0.500000   0.500000   0.000000 )  

     reciprocal axes: (cart. coord. in units 2 pi/alat)
               b(1) = ( -1.000000 -1.000000  1.000000 )  
               b(2) = (  1.000000  1.000000  1.000000 )  
               b(3) = ( -1.000000  1.000000 -1.000000 )  


     PseudoPot. # 1 for Si read from file:
     /home/max/quantum_espresso/qe-6.1/pseudo/si_pbe_v1.uspp.F.UPF.txt
     MD5 check sum: a056efeee980c13900f22a371efd63c1
     Pseudo is Ultrasoft + core correction, Zval =  4.0
     Generated by new atomic code, or converted to UPF format
     Using radial grid of  899 points,  6 beta functions with: 
                l(1) =   0
                l(2) =   0
                l(3) =   1
                l(4) =   1
                l(5) =   2
                l(6) =   2
     Q(r) pseudized with  8 coefficients,  rinner =    0.900   0.900   0.900
                                                       0.900   0.900

     atomic species   valence    mass     pseudopotential
        Si             4.00    28.08600     Si( 1.00)

     48 Sym. Ops., with inversion, found



   Cartesian axes

     site n.     atom                  positions (alat units)
         1           Si  tau(   1) = (   0.0000000   0.0000000   0.0000000  )
         2           Si  tau(   2) = (   0.2500000   0.2500000   0.2500000  )

     number of k points=   288

     Number of k-points >= 100: set verbosity='high' to print them.

     Dense  grid:     2891 G-vectors     FFT dimensions: (  20,  20,  20)

     Estimated max dynamical RAM per process >       0.33MB

     Estimated total allocated dynamical RAM >       1.34MB

     Check: negative/imaginary core charge=   -0.000006    0.000000

     The potential is recalculated from file :
     ./_ph0/silicon.10.42.save/charge-density.dat

     Starting wfc are    8 atomic wfcs

     Band Structure Calculation
     Davidson diagonalization with overlap

     ethr =  1.25E-10,  avg # of iterations = 11.6

     total cpu time spent up to now is        3.8 secs

     End of band structure calculation

     Number of k-points >= 100: set verbosity='high' to print the bands.

     highest occupied level (ev):     5.4538

     Writing output data file silicon.10.42.save

                                                                                

     bravais-lattice index     =            2
     lattice parameter (alat)  =      10.4200  a.u.
     unit-cell volume          =     282.8415 (a.u.)^3
     number of atoms/cell      =            2
     number of atomic types    =            1
     kinetic-energy cut-off    =      18.0000  Ry
     charge density cut-off    =      72.0000  Ry
     convergence threshold     =      1.0E-12
     beta                      =       0.7000
     number of iterations used =            4
     Exchange-correlation      = SLA  PW   PBE  PBE ( 1  4  3  4 0 0)


     celldm(1)=   10.42000  celldm(2)=    0.00000  celldm(3)=    0.00000
     celldm(4)=    0.00000  celldm(5)=    0.00000  celldm(6)=    0.00000

     crystal axes: (cart. coord. in units of alat)
               a(1) = ( -0.5000  0.0000  0.5000 )  
               a(2) = (  0.0000  0.5000  0.5000 )  
               a(3) = ( -0.5000  0.5000  0.0000 )  

     reciprocal axes: (cart. coord. in units 2 pi/alat)
               b(1) = ( -1.0000 -1.0000  1.0000 )  
               b(2) = (  1.0000  1.0000  1.0000 )  
               b(3) = ( -1.0000  1.0000 -1.0000 )  


     Atoms inside the unit cell: 

     Cartesian axes

     site n.  atom      mass           positions (alat units)
        1     Si  28.0860   tau(    1) = (    0.00000    0.00000    0.00000  )
        2     Si  28.0860   tau(    2) = (    0.25000    0.25000    0.25000  )

     Computing dynamical matrix for 
                    q = (   0.7500000  -0.2500000   0.7500000 )

      2 Sym.Ops. (no q -> -q+G )


     G cutoff =  198.0196  (    723 G-vectors)     FFT grid: ( 20, 20, 20)
     number of k points=   288

     PseudoPot. # 1 for Si read from file:
     /home/max/quantum_espresso/qe-6.1/pseudo/si_pbe_v1.uspp.F.UPF.txt
     MD5 check sum: a056efeee980c13900f22a371efd63c1
     Pseudo is Ultrasoft + core correction, Zval =  4.0
     Generated by new atomic code, or converted to UPF format
     Using radial grid of  899 points,  6 beta functions with: 
                l(1) =   0
                l(2) =   0
                l(3) =   1
                l(4) =   1
                l(5) =   2
                l(6) =   2
     Q(r) pseudized with  8 coefficients,  rinner =    0.900   0.900   0.900
                                                       0.900   0.900

     Mode symmetry, C_s (m)     point group:


     Atomic displacements:
     There are   6 irreducible representations

     Representation     1      1 modes -A'  To be done

     Representation     2      1 modes -A'  To be done

     Representation     3      1 modes -A'  To be done

     Representation     4      1 modes -A'  To be done

     Representation     5      1 modes -A''  To be done

     Representation     6      1 modes -A''  To be done



     Alpha used in Ewald sum =   0.7000
     PHONON       :    28.11s CPU        29.34s WALL



     Representation #  1 mode #   1

     Self-consistent Calculation

      iter #   1 total cpu time :    29.8 secs   av.it.:   5.3
      thresh= 1.000E-02 alpha_mix =  0.700 |ddv_scf|^2 =  6.012E-05

      iter #   2 total cpu time :    30.5 secs   av.it.:   8.9
      thresh= 7.753E-04 alpha_mix =  0.700 |ddv_scf|^2 =  1.601E-04

      iter #   3 total cpu time :    31.1 secs   av.it.:   7.6
      thresh= 1.265E-03 alpha_mix =  0.700 |ddv_scf|^2 =  1.128E-06

      iter #   4 total cpu time :    31.7 secs   av.it.:   8.4
      thresh= 1.062E-04 alpha_mix =  0.700 |ddv_scf|^2 =  5.868E-08

      iter #   5 total cpu time :    32.4 secs   av.it.:   8.3
      thresh= 2.422E-05 alpha_mix =  0.700 |ddv_scf|^2 =  7.339E-09

      iter #   6 total cpu time :    33.0 secs   av.it.:   8.5
      thresh= 8.567E-06 alpha_mix =  0.700 |ddv_scf|^2 =  9.762E-11

      iter #   7 total cpu time :    33.6 secs   av.it.:   8.7
      thresh= 9.880E-07 alpha_mix =  0.700 |ddv_scf|^2 =  3.403E-12

      iter #   8 total cpu time :    34.3 secs   av.it.:   8.6
      thresh= 1.845E-07 alpha_mix =  0.700 |ddv_scf|^2 =  2.446E-13

     End of self-consistent calculation

     Convergence has been achieved 


     Representation #  2 mode #   2

     Self-consistent Calculation

      iter #   1 total cpu time :    34.8 secs   av.it.:   5.4
      thresh= 1.000E-02 alpha_mix =  0.700 |ddv_scf|^2 =  1.069E-04

      iter #   2 total cpu time :    35.5 secs   av.it.:   8.7
      thresh= 1.034E-03 alpha_mix =  0.700 |ddv_scf|^2 =  3.078E-04

      iter #   3 total cpu time :    36.1 secs   av.it.:   7.4
      thresh= 1.755E-03 alpha_mix =  0.700 |ddv_scf|^2 =  8.073E-07

      iter #   4 total cpu time :    36.7 secs   av.it.:   8.5
      thresh= 8.985E-05 alpha_mix =  0.700 |ddv_scf|^2 =  5.695E-08

      iter #   5 total cpu time :    37.3 secs   av.it.:   8.2
      thresh= 2.386E-05 alpha_mix =  0.700 |ddv_scf|^2 =  1.079E-08

      iter #   6 total cpu time :    38.0 secs   av.it.:   8.5
      thresh= 1.039E-05 alpha_mix =  0.700 |ddv_scf|^2 =  9.363E-11

      iter #   7 total cpu time :    38.6 secs   av.it.:   8.8
      thresh= 9.676E-07 alpha_mix =  0.700 |ddv_scf|^2 =  2.983E-12

      iter #   8 total cpu time :    39.3 secs   av.it.:   8.7
      thresh= 1.727E-07 alpha_mix =  0.700 |ddv_scf|^2 =  7.805E-13

     End of self-consistent calculation

     Convergence has been achieved 


     Representation #  3 mode #   3

     Self-consistent Calculation

      iter #   1 total cpu time :    39.8 secs   av.it.:   5.3
      thresh= 1.000E-02 alpha_mix =  0.700 |ddv_scf|^2 =  8.380E-05

      iter #   2 total cpu time :    40.5 secs   av.it.:   8.7
      thresh= 9.154E-04 alpha_mix =  0.700 |ddv_scf|^2 =  2.252E-04

      iter #   3 total cpu time :    41.0 secs   av.it.:   7.4
      thresh= 1.501E-03 alpha_mix =  0.700 |ddv_scf|^2 =  1.373E-06

      iter #   4 total cpu time :    41.7 secs   av.it.:   8.2
      thresh= 1.172E-04 alpha_mix =  0.700 |ddv_scf|^2 =  5.830E-08

      iter #   5 total cpu time :    42.3 secs   av.it.:   8.4
      thresh= 2.415E-05 alpha_mix =  0.700 |ddv_scf|^2 =  1.117E-08

      iter #   6 total cpu time :    42.9 secs   av.it.:   8.5
      thresh= 1.057E-05 alpha_mix =  0.700 |ddv_scf|^2 =  5.285E-11

      iter #   7 total cpu time :    43.6 secs   av.it.:   8.7
      thresh= 7.270E-07 alpha_mix =  0.700 |ddv_scf|^2 =  2.078E-12

      iter #   8 total cpu time :    44.2 secs   av.it.:   8.8
      thresh= 1.441E-07 alpha_mix =  0.700 |ddv_scf|^2 =  4.861E-13

     End of self-consistent calculation

     Convergence has been achieved 


     Representation #  4 mode #   4

     Self-consistent Calculation

      iter #   1 total cpu time :    44.8 secs   av.it.:   5.2
      thresh= 1.000E-02 alpha_mix =  0.700 |ddv_scf|^2 =  3.705E-05

      iter #   2 total cpu time :    45.4 secs   av.it.:   8.9
[...]
        k(   59) = (  -0.8750000   0.1250000  -0.1250000), wk =   0.0625000
        k(   60) = (  -1.3750000  -0.8750000  -0.1250000), wk =   0.0000000
        k(   61) = (  -1.1250000   0.3750000  -0.3750000), wk =   0.0625000
        k(   62) = (  -1.6250000  -0.6250000  -0.3750000), wk =   0.0000000
        k(   63) = (  -0.3750000   0.3750000   1.1250000), wk =   0.0625000
        k(   64) = (  -0.8750000  -0.6250000   1.1250000), wk =   0.0000000

     Dense  grid:     2891 G-vectors     FFT dimensions: (  20,  20,  20)

     Estimated max dynamical RAM per process >       0.33MB

     Estimated total allocated dynamical RAM >       1.34MB

     Check: negative/imaginary core charge=   -0.000006    0.000000

     The potential is recalculated from file :
     ./_ph0/silicon.10.42.save/charge-density.dat

     Starting wfc are    8 atomic wfcs

     Band Structure Calculation
     Davidson diagonalization with overlap

     ethr =  1.25E-10,  avg # of iterations = 11.6

     total cpu time spent up to now is        5.9 secs

     End of band structure calculation

          k =-0.1250 0.1250 0.1250 (   353 PWs)   bands (ev):

    -5.7214   4.1418   5.4538   5.4538

          k =-0.6250-0.8750 0.1250 (   369 PWs)   bands (ev):

    -2.6081  -1.0926   1.8755   2.9185

          k =-0.3750 0.3750-0.1250 (   362 PWs)   bands (ev):

    -4.7207   1.1916   3.5154   4.9784

          k =-0.8750-0.6250-0.1250 (   369 PWs)   bands (ev):

    -2.6081  -1.0926   1.8755   2.9185

          k = 0.3750-0.3750 0.6250 (   366 PWs)   bands (ev):

    -3.6185  -0.8270   3.5221   4.2289

          k =-0.1250-1.3750 0.6250 (   369 PWs)   bands (ev):

    -3.1341  -0.7743   1.9219   3.9213

          k = 0.1250-0.1250 0.3750 (   359 PWs)   bands (ev):

    -5.2061   2.5349   4.4733   4.5227

          k =-0.3750-1.1250 0.3750 (   369 PWs)   bands (ev):

    -3.1341  -0.7743   1.9219   3.9213

          k =-0.1250 0.6250 0.1250 (   361 PWs)   bands (ev):

    -4.1999   0.8317   3.1815   3.6191

          k =-0.6250-0.3750 0.1250 (   365 PWs)   bands (ev):

    -3.7981  -0.0055   2.5523   3.8889

          k = 0.6250-0.1250 0.8750 (   369 PWs)   bands (ev):

    -2.6081  -1.0926   1.8755   2.9185

          k = 0.1250-1.1250 0.8750 (   364 PWs)   bands (ev):

    -2.7642  -1.0008   2.4643   3.1622

          k = 0.3750 0.1250 0.6250 (   365 PWs)   bands (ev):

    -3.7981  -0.0055   2.5523   3.8889

          k =-0.1250-0.8750 0.6250 (   369 PWs)   bands (ev):

    -2.6081  -1.0926   1.8755   2.9185

          k =-0.1250-0.8750 0.1250 (   364 PWs)   bands (ev):

    -2.7642  -1.0008   2.4643   3.1622

          k =-0.6250-1.8750 0.1250 (   361 PWs)   bands (ev):

    -4.1999   0.8317   3.1815   3.6191

          k =-0.3750 0.3750 0.3750 (   359 PWs)   bands (ev):

    -4.3013  -0.0554   4.6793   4.6793

          k =-0.8750-0.6250 0.3750 (   365 PWs)   bands (ev):

    -3.7981  -0.0055   2.5523   3.8889

          k = 0.3750-0.3750 1.1250 (   369 PWs)   bands (ev):

    -3.1341  -0.7743   1.9219   3.9213

          k =-0.1250-1.3750 1.1250 (   369 PWs)   bands (ev):

    -2.6081  -1.0926   1.8755   2.9185

          k = 0.1250-0.3750 0.3750 (   362 PWs)   bands (ev):

    -4.7207   1.1916   3.5154   4.9784

          k =-0.3750-1.3750 0.3750 (   366 PWs)   bands (ev):

    -3.6185  -0.8270   3.5221   4.2289

          k = 0.3750-0.3750-0.1250 (   362 PWs)   bands (ev):

    -4.7207   1.1916   3.5154   4.9784

          k =-0.1250-1.3750-0.1250 (   361 PWs)   bands (ev):

    -4.1999   0.8317   3.1815   3.6191

          k =-0.6250 0.3750-0.3750 (   366 PWs)   bands (ev):

    -3.6185  -0.8270   3.5221   4.2289

          k =-1.1250-0.6250-0.3750 (   365 PWs)   bands (ev):

    -3.7981  -0.0055   2.5523   3.8889

          k =-0.3750 0.3750 0.6250 (   366 PWs)   bands (ev):

    -3.6185  -0.8270   3.5221   4.2289

          k =-0.8750-0.6250 0.6250 (   362 PWs)   bands (ev):

    -4.7207   1.1916   3.5154   4.9784

          k =-0.3750 0.1250-0.1250 (   359 PWs)   bands (ev):

    -5.2061   2.5349   4.4733   4.5227

          k =-0.8750-0.8750-0.1250 (   364 PWs)   bands (ev):

    -2.7642  -1.0008   2.4643   3.1622

          k =-0.1250 0.1250 0.3750 (   359 PWs)   bands (ev):

    -5.2061   2.5349   4.4733   4.5227

          k =-0.6250-0.8750 0.3750 (   365 PWs)   bands (ev):

    -3.7981  -0.0055   2.5523   3.8889

          k = 0.1250 0.6250-0.1250 (   361 PWs)   bands (ev):

    -4.1999   0.8317   3.1815   3.6191

          k =-0.3750-0.3750-0.1250 (   362 PWs)   bands (ev):

    -4.7207   1.1916   3.5154   4.9784

          k = 0.6250 0.1250-0.1250 (   361 PWs)   bands (ev):

    -4.1999   0.8317   3.1815   3.6191

          k = 0.1250-0.8750-0.1250 (   364 PWs)   bands (ev):

    -2.7642  -1.0008   2.4643   3.1622

          k =-0.8750 0.1250-0.6250 (   369 PWs)   bands (ev):

    -2.6081  -1.0926   1.8755   2.9185

          k =-1.3750-0.8750-0.6250 (   362 PWs)   bands (ev):

    -4.7207   1.1916   3.5154   4.9784

          k = 0.8750-0.1250 0.6250 (   369 PWs)   bands (ev):

    -2.6081  -1.0926   1.8755   2.9185

          k = 0.3750-1.1250 0.6250 (   365 PWs)   bands (ev):

    -3.7981  -0.0055   2.5523   3.8889

          k =-0.6250 0.1250 0.8750 (   369 PWs)   bands (ev):

    -2.6081  -1.0926   1.8755   2.9185

          k =-1.1250-0.8750 0.8750 (   353 PWs)   bands (ev):

    -5.7214   4.1418   5.4538   5.4538

          k =-0.1250 0.8750 0.6250 (   369 PWs)   bands (ev):

    -2.6081  -1.0926   1.8755   2.9185

          k =-0.6250-0.1250 0.6250 (   369 PWs)   bands (ev):

    -3.1341  -0.7743   1.9219   3.9213

          k = 0.1250 0.8750-0.6250 (   369 PWs)   bands (ev):

    -2.6081  -1.0926   1.8755   2.9185

          k =-0.3750-0.1250-0.6250 (   365 PWs)   bands (ev):

    -3.7981  -0.0055   2.5523   3.8889

          k =-0.6250-0.1250-0.3750 (   365 PWs)   bands (ev):

    -3.7981  -0.0055   2.5523   3.8889

          k =-1.1250-1.1250-0.3750 (   361 PWs)   bands (ev):

    -4.1999   0.8317   3.1815   3.6191

          k = 0.6250 0.1250 0.3750 (   365 PWs)   bands (ev):

    -3.7981  -0.0055   2.5523   3.8889

          k = 0.1250-0.8750 0.3750 (   369 PWs)   bands (ev):

    -2.6081  -1.0926   1.8755   2.9185

          k =-0.3750-0.1250 0.6250 (   365 PWs)   bands (ev):

    -3.7981  -0.0055   2.5523   3.8889

          k =-0.8750-1.1250 0.6250 (   359 PWs)   bands (ev):

    -5.2061   2.5349   4.4733   4.5227

          k = 0.1250 0.6250 0.3750 (   365 PWs)   bands (ev):

    -3.7981  -0.0055   2.5523   3.8889

          k =-0.3750-0.3750 0.3750 (   359 PWs)   bands (ev):

    -4.3013  -0.0554   4.6793   4.6793

          k =-0.1250 0.6250-0.3750 (   365 PWs)   bands (ev):

    -3.7981  -0.0055   2.5523   3.8889

          k =-0.6250-0.3750-0.3750 (   366 PWs)   bands (ev):

    -3.6185  -0.8270   3.5221   4.2289

          k = 0.1250-0.8750-0.1250 (   364 PWs)   bands (ev):

    -2.7642  -1.0008   2.4643   3.1622

          k =-0.3750-1.8750-0.1250 (   359 PWs)   bands (ev):

    -5.2061   2.5349   4.4733   4.5227

          k =-0.8750 0.1250-0.1250 (   364 PWs)   bands (ev):

    -2.7642  -1.0008   2.4643   3.1622

          k =-1.3750-0.8750-0.1250 (   369 PWs)   bands (ev):

    -2.6081  -1.0926   1.8755   2.9185

          k =-1.1250 0.3750-0.3750 (   369 PWs)   bands (ev):

    -3.1341  -0.7743   1.9219   3.9213

          k =-1.6250-0.6250-0.3750 (   366 PWs)   bands (ev):

    -3.6185  -0.8270   3.5221   4.2289

          k =-0.3750 0.3750 1.1250 (   369 PWs)   bands (ev):

    -3.1341  -0.7743   1.9219   3.9213

          k =-0.8750-0.6250 1.1250 (   359 PWs)   bands (ev):

    -5.2061   2.5349   4.4733   4.5227

     highest occupied level (ev):     5.4538

     Writing output data file silicon.10.42.save

                                                                                

     bravais-lattice index     =            2
     lattice parameter (alat)  =      10.4200  a.u.
     unit-cell volume          =     282.8415 (a.u.)^3
     number of atoms/cell      =            2
     number of atomic types    =            1
     kinetic-energy cut-off    =      18.0000  Ry
     charge density cut-off    =      72.0000  Ry
     convergence threshold     =      1.0E-12
     beta                      =       0.7000
     number of iterations used =            4
     Exchange-correlation      = SLA  PW   PBE  PBE ( 1  4  3  4 0 0)


     celldm(1)=   10.42000  celldm(2)=    0.00000  celldm(3)=    0.00000
     celldm(4)=    0.00000  celldm(5)=    0.00000  celldm(6)=    0.00000

     crystal axes: (cart. coord. in units of alat)
               a(1) = ( -0.5000  0.0000  0.5000 )  
               a(2) = (  0.0000  0.5000  0.5000 )  
               a(3) = ( -0.5000  0.5000  0.0000 )  

     reciprocal axes: (cart. coord. in units 2 pi/alat)
               b(1) = ( -1.0000 -1.0000  1.0000 )  
               b(2) = (  1.0000  1.0000  1.0000 )  
               b(3) = ( -1.0000  1.0000 -1.0000 )  


     Atoms inside the unit cell: 

     Cartesian axes

     site n.  atom      mass           positions (alat units)
        1     Si  28.0860   tau(    1) = (    0.00000    0.00000    0.00000  )
        2     Si  28.0860   tau(    2) = (    0.25000    0.25000    0.25000  )

     Computing dynamical matrix for 
                    q = (  -0.5000000  -1.0000000   0.0000000 )

      8 Sym.Ops. (no q -> -q+G )


     G cutoff =  198.0196  (    722 G-vectors)     FFT grid: ( 20, 20, 20)
     number of k points=    64

     PseudoPot. # 1 for Si read from file:
     /home/max/quantum_espresso/qe-6.1/pseudo/si_pbe_v1.uspp.F.UPF.txt
     MD5 check sum: a056efeee980c13900f22a371efd63c1
     Pseudo is Ultrasoft + core correction, Zval =  4.0
     Generated by new atomic code, or converted to UPF format
     Using radial grid of  899 points,  6 beta functions with: 
                l(1) =   0
                l(2) =   0
                l(3) =   1
                l(4) =   1
                l(5) =   2
                l(6) =   2
     Q(r) pseudized with  8 coefficients,  rinner =    0.900   0.900   0.900
                                                       0.900   0.900


     Atomic displacements:
     There are   3 irreducible representations

     Representation     1      2 modes -  To be done

     Representation     2      2 modes -  To be done

     Representation     3      2 modes -  To be done



     Alpha used in Ewald sum =   0.7000
     PHONON       :  1m 9.76s CPU     1m12.80s WALL



     Representation #  1 modes #   1  2

     Self-consistent Calculation

      iter #   1 total cpu time :    73.0 secs   av.it.:   5.3
      thresh= 1.000E-02 alpha_mix =  0.700 |ddv_scf|^2 =  6.257E-06

      iter #   2 total cpu time :    73.4 secs   av.it.:   9.9
      thresh= 2.501E-04 alpha_mix =  0.700 |ddv_scf|^2 =  3.363E-06

      iter #   3 total cpu time :    73.7 secs   av.it.:   9.2
      thresh= 1.834E-04 alpha_mix =  0.700 |ddv_scf|^2 =  8.602E-09

      iter #   4 total cpu time :    74.0 secs   av.it.:   9.1
      thresh= 9.275E-06 alpha_mix =  0.700 |ddv_scf|^2 =  2.352E-11

      iter #   5 total cpu time :    74.3 secs   av.it.:   9.0
      thresh= 4.849E-07 alpha_mix =  0.700 |ddv_scf|^2 =  6.728E-13

     End of self-consistent calculation

     Convergence has been achieved 


     Representation #  2 modes #   3  4

     Self-consistent Calculation

      iter #   1 total cpu time :    74.6 secs   av.it.:   5.2
      thresh= 1.000E-02 alpha_mix =  0.700 |ddv_scf|^2 =  9.672E-06

      iter #   2 total cpu time :    74.9 secs   av.it.:   9.9
      thresh= 3.110E-04 alpha_mix =  0.700 |ddv_scf|^2 =  1.323E-05

      iter #   3 total cpu time :    75.2 secs   av.it.:   9.1
      thresh= 3.638E-04 alpha_mix =  0.700 |ddv_scf|^2 =  1.031E-08

      iter #   4 total cpu time :    75.5 secs   av.it.:   8.9
      thresh= 1.015E-05 alpha_mix =  0.700 |ddv_scf|^2 =  1.006E-10

      iter #   5 total cpu time :    75.8 secs   av.it.:   9.5
      thresh= 1.003E-06 alpha_mix =  0.700 |ddv_scf|^2 =  1.906E-12

      iter #   6 total cpu time :    76.1 secs   av.it.:   9.1
      thresh= 1.381E-07 alpha_mix =  0.700 |ddv_scf|^2 =  1.599E-14

     End of self-consistent calculation

     Convergence has been achieved 


     Representation #  3 modes #   5  6

     Self-consistent Calculation

      iter #   1 total cpu time :    76.4 secs   av.it.:   5.1
      thresh= 1.000E-02 alpha_mix =  0.700 |ddv_scf|^2 =  2.609E-06

      iter #   2 total cpu time :    76.7 secs   av.it.:   9.7
      thresh= 1.615E-04 alpha_mix =  0.700 |ddv_scf|^2 =  1.420E-06

      iter #   3 total cpu time :    77.0 secs   av.it.:   9.1
      thresh= 1.192E-04 alpha_mix =  0.700 |ddv_scf|^2 =  8.237E-09

      iter #   4 total cpu time :    77.3 secs   av.it.:   8.7
      thresh= 9.076E-06 alpha_mix =  0.700 |ddv_scf|^2 =  4.630E-11

      iter #   5 total cpu time :    77.6 secs   av.it.:   9.1
      thresh= 6.804E-07 alpha_mix =  0.700 |ddv_scf|^2 =  7.218E-13

     End of self-consistent calculation

     Convergence has been achieved 

     Number of q in the star =    6
     List of q in the star:
          1  -0.500000000  -1.000000000   0.000000000
          2   0.000000000   1.000000000   0.500000000
          3   0.000000000  -1.000000000  -0.500000000
          4   0.500000000   1.000000000   0.000000000
          5  -1.000000000  -0.500000000   0.000000000
          6   0.000000000  -0.500000000  -1.000000000

     Diagonalizing the dynamical matrix

     q = (   -0.500000000  -1.000000000   0.000000000 ) 

 **************************************************************************
     freq (    1) =       7.840924 [THz] =     261.545088 [cm-1]
     freq (    2) =       7.840924 [THz] =     261.545088 [cm-1]
     freq (    3) =      10.983784 [THz] =     366.379593 [cm-1]
     freq (    4) =      10.983784 [THz] =     366.379593 [cm-1]
     freq (    5) =      13.657181 [THz] =     455.554510 [cm-1]
     freq (    6) =      13.657181 [THz] =     455.554510 [cm-1]
 **************************************************************************

     init_run     :      0.52s CPU      0.54s WALL (       7 calls)
     electrons    :      4.36s CPU      4.61s WALL (       7 calls)

     Called by init_run:
     wfcinit      :      0.00s CPU      0.00s WALL (       7 calls)
     potinit      :      0.02s CPU      0.02s WALL (       7 calls)

     Called by electrons:
     c_bands      :      4.35s CPU      4.60s WALL (       7 calls)
     v_of_rho     :      0.01s CPU      0.01s WALL (       8 calls)
     newd         :      0.03s CPU      0.03s WALL (       8 calls)

     Called by c_bands:
     init_us_2    :      0.68s CPU      0.71s WALL (   17588 calls)
     cegterg      :      3.66s CPU      3.87s WALL (     796 calls)

     Called by sum_band:

     Called by *egterg:
     h_psi        :     41.18s CPU     43.08s WALL (  152309 calls)
     s_psi        :      5.85s CPU      6.12s WALL (  309338 calls)
     g_psi        :      0.03s CPU      0.03s WALL (    9268 calls)
     cdiaghg      :      0.41s CPU      0.44s WALL (   10064 calls)

     Called by h_psi:
     h_psi:pot    :     40.99s CPU     42.89s WALL (  152309 calls)
     h_psi:calbec :      4.07s CPU      4.26s WALL (  152309 calls)
     vloc_psi     :     33.79s CPU     35.35s WALL (  152309 calls)
     add_vuspsi   :      2.91s CPU      3.06s WALL (  152309 calls)

     General routines
     calbec       :      9.01s CPU      9.42s WALL (  345710 calls)
     fft          :      0.27s CPU      0.28s WALL (    5239 calls)
     ffts         :      0.13s CPU      0.13s WALL (    2748 calls)
     fftw         :     39.03s CPU     40.79s WALL ( 1378964 calls)
     davcio       :      0.31s CPU      0.32s WALL (   79045 calls)

     Parallel routines
     fft_scatter  :      7.02s CPU      7.37s WALL ( 1386951 calls)

     PHONON       :  1m14.38s CPU     1m17.64s WALL

     INITIALIZATION: 
     phq_setup    :      0.05s CPU      0.05s WALL (       8 calls)
     phq_init     :      1.93s CPU      1.97s WALL (       8 calls)

     phq_init     :      1.93s CPU      1.97s WALL (       8 calls)
     set_drhoc    :      0.29s CPU      0.30s WALL (      24 calls)
     init_vloc    :      0.01s CPU      0.01s WALL (       8 calls)
     init_us_1    :      0.47s CPU      0.48s WALL (       8 calls)
     newd         :      0.03s CPU      0.03s WALL (       8 calls)
     dvanqq       :      0.23s CPU      0.23s WALL (       8 calls)
     drho         :      0.97s CPU      1.00s WALL (       8 calls)

     DYNAMICAL MATRIX:
     dynmat0      :      0.49s CPU      0.49s WALL (       8 calls)
     phqscf       :     65.12s CPU     68.00s WALL (       8 calls)
     dynmatrix    :      0.01s CPU      0.01s WALL (       8 calls)

     phqscf       :     65.12s CPU     68.00s WALL (       8 calls)
     solve_linter :     64.42s CPU     67.28s WALL (      32 calls)
     drhodv       :      0.49s CPU      0.50s WALL (      32 calls)

     dynmat0      :      0.49s CPU      0.49s WALL (       8 calls)
     dynmat_us    :      0.27s CPU      0.27s WALL (       8 calls)
     d2ionq       :      0.01s CPU      0.01s WALL (       8 calls)
     dynmatcc     :      0.21s CPU      0.21s WALL (       8 calls)

     dynmat_us    :      0.27s CPU      0.27s WALL (       8 calls)
     addusdynmat  :      0.00s CPU      0.00s WALL (       8 calls)

     phqscf       :     65.12s CPU     68.00s WALL (       8 calls)
     solve_linter :     64.42s CPU     67.28s WALL (      32 calls)

     solve_linter :     64.42s CPU     67.28s WALL (      32 calls)
     dvqpsi_us    :      1.59s CPU      1.65s WALL (    2508 calls)
     ortho        :      0.93s CPU      0.97s WALL (   15550 calls)
     cgsolve      :     50.44s CPU     52.72s WALL (   15550 calls)
     incdrhoscf   :      4.40s CPU      4.58s WALL (   15550 calls)
     addusddens   :      1.11s CPU      1.13s WALL (     228 calls)
     vpsifft      :      3.21s CPU      3.35s WALL (   12922 calls)
     dv_of_drho   :      0.20s CPU      0.20s WALL (     295 calls)
     mix_pot      :      0.05s CPU      0.06s WALL (     201 calls)
     psymdvscf    :      0.79s CPU      0.80s WALL (     196 calls)
     newdq        :      1.17s CPU      1.23s WALL (     201 calls)
     adddvscf     :      0.46s CPU      0.49s WALL (   13042 calls)
     drhodvus     :      0.00s CPU      0.00s WALL (      32 calls)

     dvqpsi_us    :      1.59s CPU      1.65s WALL (    2508 calls)
     dvqpsi_us_on :      0.82s CPU      0.85s WALL (    2508 calls)

     cgsolve      :     50.44s CPU     52.72s WALL (   15550 calls)
     ch_psi       :     49.00s CPU     51.20s WALL (  141449 calls)

     ch_psi       :     49.00s CPU     51.20s WALL (  141449 calls)
     h_psi        :     41.18s CPU     43.08s WALL (  152309 calls)
     last         :      7.78s CPU      8.12s WALL (  141449 calls)

     h_psi        :     41.18s CPU     43.08s WALL (  152309 calls)
     add_vuspsi   :      2.91s CPU      3.06s WALL (  152309 calls)

     incdrhoscf   :      4.40s CPU      4.58s WALL (   15550 calls)
     addusdbec    :      0.59s CPU      0.62s WALL (   17998 calls)

     drhodvus     :      0.00s CPU      0.00s WALL (      32 calls)

      General routines
     calbec       :      9.01s CPU      9.42s WALL (  345710 calls)
     fft          :      0.27s CPU      0.28s WALL (    5239 calls)
     ffts         :      0.13s CPU      0.13s WALL (    2748 calls)
     fftw         :     39.03s CPU     40.79s WALL ( 1378964 calls)
     davcio       :      0.31s CPU      0.32s WALL (   79045 calls)
     write_rec    :      0.20s CPU      0.21s WALL (     233 calls)


     PHONON       :  1m14.38s CPU     1m17.64s WALL


   This run was terminated on:   1:36:53   9Nov2017            

=------------------------------------------------------------------------------=
   JOB DONE.
=------------------------------------------------------------------------------=
