
     Program PHONON v.6.1 (svn rev. 13369) starts on 10Nov2017 at 15:57:10 

     This program is part of the open-source Quantum ESPRESSO suite
     for quantum simulation of materials; please cite
         "P. Giannozzi et al., J. Phys.:Condens. Matter 21 395502 (2009);
          URL http://www.quantum-espresso.org", 
     in publications or presentations arising from this work. More details at
     http://www.quantum-espresso.org/quote

     Parallel version (MPI), running on     4 processors
     R & G space division:  proc/nbgrp/npool/nimage =       4

     Reading data from directory:
     ./silicon.10.374.save

   Info: using nr1, nr2, nr3 values from input

   Info: using nr1, nr2, nr3 values from input

     IMPORTANT: XC functional enforced from input :
     Exchange-correlation      = SLA  PW   PBE  PBE ( 1  4  3  4 0 0)
     Any further DFT definition will be discarded
     Please, verify this is what you really want


     Parallelization info
     --------------------
     sticks:   dense  smooth     PW     G-vecs:    dense   smooth      PW
     Min         222     109     37                 4369     1545     284
     Max         223     110     38                 4370     1546     285
     Sum         889     439    151                17477     6183    1139



     Dynamical matrices for ( 4, 4, 4)  uniform grid of q-points
     (   8q-points):
       N         xq(1)         xq(2)         xq(3) 
       1   0.000000000   0.000000000   0.000000000
       2  -0.250000000   0.250000000  -0.250000000
       3   0.500000000  -0.500000000   0.500000000
       4   0.000000000   0.500000000   0.000000000
       5   0.750000000  -0.250000000   0.750000000
       6   0.500000000   0.000000000   0.500000000
       7   0.000000000  -1.000000000   0.000000000
       8  -0.500000000  -1.000000000   0.000000000

     Calculation of q =    0.0000000   0.0000000   0.0000000

                                                                                

     bravais-lattice index     =            2
     lattice parameter (alat)  =      10.3740  a.u.
     unit-cell volume          =     279.1121 (a.u.)^3
     number of atoms/cell      =            2
     number of atomic types    =            1
     kinetic-energy cut-off    =      30.0000  Ry
     charge density cut-off    =     240.0000  Ry
     convergence threshold     =      1.0E-12
     beta                      =       0.7000
     number of iterations used =            4
     Exchange-correlation      = SLA  PW   PBE  PBE ( 1  4  3  4 0 0)


     celldm(1)=   10.37400  celldm(2)=    0.00000  celldm(3)=    0.00000
     celldm(4)=    0.00000  celldm(5)=    0.00000  celldm(6)=    0.00000

     crystal axes: (cart. coord. in units of alat)
               a(1) = ( -0.5000  0.0000  0.5000 )  
               a(2) = (  0.0000  0.5000  0.5000 )  
               a(3) = ( -0.5000  0.5000  0.0000 )  

     reciprocal axes: (cart. coord. in units 2 pi/alat)
               b(1) = ( -1.0000 -1.0000  1.0000 )  
               b(2) = (  1.0000  1.0000  1.0000 )  
               b(3) = ( -1.0000  1.0000 -1.0000 )  


     Atoms inside the unit cell: 

     Cartesian axes

     site n.  atom      mass           positions (alat units)
        1     Si  28.0860   tau(    1) = (    0.00000    0.00000    0.00000  )
        2     Si  28.0860   tau(    2) = (    0.25000    0.25000    0.25000  )

     Computing dynamical matrix for 
                    q = (   0.0000000   0.0000000   0.0000000 )

     49 Sym.Ops. (with q -> -q+G )


     G cutoff =  654.2504  (   4369 G-vectors)     FFT grid: ( 40, 40, 40)
     G cutoff =  327.1252  (   1546 G-vectors)  smooth grid: ( 25, 25, 25)
     number of k points=    10

     PseudoPot. # 1 for Si read from file:
     /home/s1333534/quantum_espresso/qe-6.1/pseudo/si_pbe_v1.uspp.F.UPF.txt
     MD5 check sum: a056efeee980c13900f22a371efd63c1
     Pseudo is Ultrasoft + core correction, Zval =  4.0
     Generated by new atomic code, or converted to UPF format
     Using radial grid of  899 points,  6 beta functions with: 
                l(1) =   0
                l(2) =   0
                l(3) =   1
                l(4) =   1
                l(5) =   2
                l(6) =   2
     Q(r) pseudized with  8 coefficients,  rinner =    0.900   0.900   0.900
                                                       0.900   0.900

     Mode symmetry, O_h (m-3m)  point group:


     Electric field:
     Dielectric constant
     Born effective charges in two ways 


     Atomic displacements:
     There are   2 irreducible representations

     Representation     1      3 modes -T_2g G_25' G_5+  To be done

     Representation     2      3 modes -T_1u G_15  G_4-  To be done



     Alpha used in Ewald sum =   2.5000
     PHONON       :     0.98s CPU         1.73s WALL


     Electric Fields Calculation

      iter #   1 total cpu time :     2.9 secs   av.it.:   5.7
      thresh= 1.000E-02 alpha_mix =  0.700 |ddv_scf|^2 =  9.656E-08

      iter #   2 total cpu time :     3.7 secs   av.it.:  11.9
      thresh= 3.107E-05 alpha_mix =  0.700 |ddv_scf|^2 =  5.788E-09

      iter #   3 total cpu time :     4.5 secs   av.it.:  11.7
      thresh= 7.608E-06 alpha_mix =  0.700 |ddv_scf|^2 =  3.925E-10

      iter #   4 total cpu time :     5.2 secs   av.it.:  10.6
      thresh= 1.981E-06 alpha_mix =  0.700 |ddv_scf|^2 =  2.655E-12

      iter #   5 total cpu time :     5.9 secs   av.it.:  11.2
      thresh= 1.629E-07 alpha_mix =  0.700 |ddv_scf|^2 =  2.666E-15

     End of electric fields calculation

          Dielectric constant in cartesian axis 

          (      14.053434782      -0.000000000      -0.000000000 )
          (      -0.000000000      14.053434782       0.000000000 )
          (      -0.000000000       0.000000000      14.053434782 )

          Effective charges (d Force / dE) in cartesian axis

           atom      1   Si 
      Ex  (       -0.03783        0.00000        0.00000 )
      Ey  (        0.00000       -0.03783        0.00000 )
      Ez  (        0.00000        0.00000       -0.03783 )
           atom      2   Si 
      Ex  (       -0.03783       -0.00000       -0.00000 )
      Ey  (       -0.00000       -0.03783        0.00000 )
      Ez  (       -0.00000       -0.00000       -0.03783 )


     Representation #  1 modes #   1  2  3

     Self-consistent Calculation

      iter #   1 total cpu time :     7.3 secs   av.it.:   5.1
      thresh= 1.000E-02 alpha_mix =  0.700 |ddv_scf|^2 =  1.711E-08

      iter #   2 total cpu time :     8.1 secs   av.it.:  11.8
      thresh= 1.308E-05 alpha_mix =  0.700 |ddv_scf|^2 =  6.985E-10

      iter #   3 total cpu time :     8.9 secs   av.it.:  11.2
      thresh= 2.643E-06 alpha_mix =  0.700 |ddv_scf|^2 =  4.749E-11

      iter #   4 total cpu time :     9.6 secs   av.it.:  10.4
      thresh= 6.891E-07 alpha_mix =  0.700 |ddv_scf|^2 =  1.184E-13

     End of self-consistent calculation

     Convergence has been achieved 


     Representation #  2 modes #   4  5  6

     Self-consistent Calculation

      iter #   1 total cpu time :    10.5 secs   av.it.:   5.2
      thresh= 1.000E-02 alpha_mix =  0.700 |ddv_scf|^2 =  1.348E-08

      iter #   2 total cpu time :    11.4 secs   av.it.:  11.8
      thresh= 1.161E-05 alpha_mix =  0.700 |ddv_scf|^2 =  7.906E-10

      iter #   3 total cpu time :    12.2 secs   av.it.:  11.4
      thresh= 2.812E-06 alpha_mix =  0.700 |ddv_scf|^2 =  4.918E-11

      iter #   4 total cpu time :    13.0 secs   av.it.:  11.5
      thresh= 7.013E-07 alpha_mix =  0.700 |ddv_scf|^2 =  1.936E-13

     End of self-consistent calculation

     Convergence has been achieved 

     Number of q in the star =    1
     List of q in the star:
          1   0.000000000   0.000000000   0.000000000

          Dielectric constant in cartesian axis 

          (      14.053434782      -0.000000000      -0.000000000 )
          (      -0.000000000      14.053434782       0.000000000 )
          (      -0.000000000       0.000000000      14.053434782 )

          Effective charges (d Force / dE) in cartesian axis

           atom      1   Si 
      Ex  (       -0.03783        0.00000        0.00000 )
      Ey  (        0.00000       -0.03783        0.00000 )
      Ez  (        0.00000        0.00000       -0.03783 )
           atom      2   Si 
      Ex  (       -0.03783       -0.00000       -0.00000 )
      Ey  (       -0.00000       -0.03783        0.00000 )
      Ez  (       -0.00000       -0.00000       -0.03783 )

          Effective charges (d P / du) in cartesian axis 

           atom      1   Si 
      Px  (       -0.07310        0.00000       -0.00000 )
      Py  (       -0.00000       -0.07310       -0.00000 )
      Pz  (        0.00000       -0.00000       -0.07310 )
           atom      2   Si 
      Px  (       -0.07310       -0.00000       -0.00000 )
      Py  (       -0.00000       -0.07310        0.00000 )
      Pz  (       -0.00000        0.00000       -0.07310 )

     Diagonalizing the dynamical matrix

     q = (    0.000000000   0.000000000   0.000000000 ) 

 **************************************************************************
     freq (    1) =      -0.478294 [THz] =     -15.954184 [cm-1]
     freq (    2) =      -0.478294 [THz] =     -15.954184 [cm-1]
     freq (    3) =      -0.478294 [THz] =     -15.954184 [cm-1]
     freq (    4) =      14.894717 [THz] =     496.834291 [cm-1]
     freq (    5) =      14.894717 [THz] =     496.834291 [cm-1]
     freq (    6) =      14.894717 [THz] =     496.834291 [cm-1]
 **************************************************************************

     Mode symmetry, O_h (m-3m)  point group:

     freq (  1 -  3) =        -16.0  [cm-1]   --> T_1u G_15  G_4- I  
     freq (  4 -  6) =        496.8  [cm-1]   --> T_2g G_25' G_5+ R  

     Calculation of q =   -0.2500000   0.2500000  -0.2500000

   Info: using nr1, nr2, nr3 values from input

   Info: using nr1, nr2, nr3 values from input

     Parallelization info
     --------------------
     sticks:   dense  smooth     PW     G-vecs:    dense   smooth      PW
     Min         222     109     37                 4369     1545     309
     Max         223     110     38                 4370     1546     312
     Sum         889     439    151                17477     6183    1243



     bravais-lattice index     =            2
     lattice parameter (alat)  =      10.3740  a.u.
     unit-cell volume          =     279.1121 (a.u.)^3
     number of atoms/cell      =            2
     number of atomic types    =            1
     number of electrons       =         8.00
     number of Kohn-Sham states=            4
     kinetic-energy cutoff     =      30.0000  Ry
     charge density cutoff     =     240.0000  Ry
     Exchange-correlation      = SLA  PW   PBE  PBE ( 1  4  3  4 0 0)

     celldm(1)=  10.374000  celldm(2)=   0.000000  celldm(3)=   0.000000
     celldm(4)=   0.000000  celldm(5)=   0.000000  celldm(6)=   0.000000

     crystal axes: (cart. coord. in units of alat)
               a(1) = (  -0.500000   0.000000   0.500000 )  
               a(2) = (   0.000000   0.500000   0.500000 )  
               a(3) = (  -0.500000   0.500000   0.000000 )  

     reciprocal axes: (cart. coord. in units 2 pi/alat)
               b(1) = ( -1.000000 -1.000000  1.000000 )  
               b(2) = (  1.000000  1.000000  1.000000 )  
               b(3) = ( -1.000000  1.000000 -1.000000 )  


     PseudoPot. # 1 for Si read from file:
     /home/s1333534/quantum_espresso/qe-6.1/pseudo/si_pbe_v1.uspp.F.UPF.txt
     MD5 check sum: a056efeee980c13900f22a371efd63c1
     Pseudo is Ultrasoft + core correction, Zval =  4.0
     Generated by new atomic code, or converted to UPF format
     Using radial grid of  899 points,  6 beta functions with: 
                l(1) =   0
                l(2) =   0
                l(3) =   1
                l(4) =   1
                l(5) =   2
                l(6) =   2
     Q(r) pseudized with  8 coefficients,  rinner =    0.900   0.900   0.900
                                                       0.900   0.900

     atomic species   valence    mass     pseudopotential
        Si             4.00    28.08600     Si( 1.00)

     48 Sym. Ops., with inversion, found



   Cartesian axes

     site n.     atom                  positions (alat units)
         1           Si  tau(   1) = (   0.0000000   0.0000000   0.0000000  )
         2           Si  tau(   2) = (   0.2500000   0.2500000   0.2500000  )

     number of k points=   120

     Number of k-points >= 100: set verbosity='high' to print them.

     Dense  grid:    17477 G-vectors     FFT dimensions: (  40,  40,  40)

     Smooth grid:     6183 G-vectors     FFT dimensions: (  25,  25,  25)

     Estimated max dynamical RAM per process >       1.79MB

     Estimated total allocated dynamical RAM >       7.17MB

     The potential is recalculated from file :
     ./_ph0/silicon.10.374.save/charge-density.dat

     Starting wfc are    8 atomic wfcs

     Band Structure Calculation
     Davidson diagonalization with overlap

     ethr =  1.25E-10,  avg # of iterations = 12.2

     total cpu time spent up to now is        1.4 secs

     End of band structure calculation

     Number of k-points >= 100: set verbosity='high' to print the bands.

     highest occupied level (ev):     5.5802

     Writing output data file silicon.10.374.save

                                                                                

     bravais-lattice index     =            2
     lattice parameter (alat)  =      10.3740  a.u.
     unit-cell volume          =     279.1121 (a.u.)^3
     number of atoms/cell      =            2
     number of atomic types    =            1
     kinetic-energy cut-off    =      30.0000  Ry
     charge density cut-off    =     240.0000  Ry
     convergence threshold     =      1.0E-12
     beta                      =       0.7000
     number of iterations used =            4
     Exchange-correlation      = SLA  PW   PBE  PBE ( 1  4  3  4 0 0)


     celldm(1)=   10.37400  celldm(2)=    0.00000  celldm(3)=    0.00000
     celldm(4)=    0.00000  celldm(5)=    0.00000  celldm(6)=    0.00000

     crystal axes: (cart. coord. in units of alat)
               a(1) = ( -0.5000  0.0000  0.5000 )  
               a(2) = (  0.0000  0.5000  0.5000 )  
               a(3) = ( -0.5000  0.5000  0.0000 )  

     reciprocal axes: (cart. coord. in units 2 pi/alat)
               b(1) = ( -1.0000 -1.0000  1.0000 )  
               b(2) = (  1.0000  1.0000  1.0000 )  
               b(3) = ( -1.0000  1.0000 -1.0000 )  


     Atoms inside the unit cell: 

     Cartesian axes

     site n.  atom      mass           positions (alat units)
        1     Si  28.0860   tau(    1) = (    0.00000    0.00000    0.00000  )
        2     Si  28.0860   tau(    2) = (    0.25000    0.25000    0.25000  )

     Computing dynamical matrix for 
                    q = (  -0.2500000   0.2500000  -0.2500000 )

      6 Sym.Ops. (no q -> -q+G )


     G cutoff =  654.2504  (   4369 G-vectors)     FFT grid: ( 40, 40, 40)
     G cutoff =  327.1252  (   1546 G-vectors)  smooth grid: ( 25, 25, 25)
     number of k points=   120

     PseudoPot. # 1 for Si read from file:
     /home/s1333534/quantum_espresso/qe-6.1/pseudo/si_pbe_v1.uspp.F.UPF.txt
     MD5 check sum: a056efeee980c13900f22a371efd63c1
     Pseudo is Ultrasoft + core correction, Zval =  4.0
     Generated by new atomic code, or converted to UPF format
     Using radial grid of  899 points,  6 beta functions with: 
                l(1) =   0
                l(2) =   0
                l(3) =   1
                l(4) =   1
                l(5) =   2
                l(6) =   2
     Q(r) pseudized with  8 coefficients,  rinner =    0.900   0.900   0.900
                                                       0.900   0.900

     Mode symmetry, C_3v (3m)   point group:


     Atomic displacements:
     There are   4 irreducible representations

     Representation     1      1 modes -A_1  L_1  To be done

     Representation     2      1 modes -A_1  L_1  To be done

     Representation     3      2 modes -E    L_3  To be done

     Representation     4      2 modes -E    L_3  To be done



     Alpha used in Ewald sum =   2.5000
     PHONON       :    12.15s CPU        16.41s WALL



     Representation #  1 mode #   1

     Self-consistent Calculation

      iter #   1 total cpu time :    16.9 secs   av.it.:   5.9
      thresh= 1.000E-02 alpha_mix =  0.700 |ddv_scf|^2 =  3.072E-04

      iter #   2 total cpu time :    17.5 secs   av.it.:   9.2
      thresh= 1.753E-03 alpha_mix =  0.700 |ddv_scf|^2 =  4.704E-03

      iter #   3 total cpu time :    18.0 secs   av.it.:   7.1
      thresh= 6.859E-03 alpha_mix =  0.700 |ddv_scf|^2 =  1.949E-07

      iter #   4 total cpu time :    18.7 secs   av.it.:   9.7
      thresh= 4.415E-05 alpha_mix =  0.700 |ddv_scf|^2 =  1.313E-08

      iter #   5 total cpu time :    19.6 secs   av.it.:   9.8
      thresh= 1.146E-05 alpha_mix =  0.700 |ddv_scf|^2 =  2.257E-10

      iter #   6 total cpu time :    20.2 secs   av.it.:   9.9
      thresh= 1.502E-06 alpha_mix =  0.700 |ddv_scf|^2 =  3.970E-10

      iter #   7 total cpu time :    20.8 secs   av.it.:   8.0
      thresh= 1.992E-06 alpha_mix =  0.700 |ddv_scf|^2 =  5.573E-11

      iter #   8 total cpu time :    21.4 secs   av.it.:   9.2
      thresh= 7.465E-07 alpha_mix =  0.700 |ddv_scf|^2 =  4.134E-13

     End of self-consistent calculation

     Convergence has been achieved 


     Representation #  2 mode #   2

     Self-consistent Calculation

      iter #   1 total cpu time :    22.0 secs   av.it.:   5.9
      thresh= 1.000E-02 alpha_mix =  0.700 |ddv_scf|^2 =  3.072E-04

      iter #   2 total cpu time :    22.8 secs   av.it.:   9.2
      thresh= 1.753E-03 alpha_mix =  0.700 |ddv_scf|^2 =  4.704E-03

      iter #   3 total cpu time :    23.3 secs   av.it.:   7.1
      thresh= 6.859E-03 alpha_mix =  0.700 |ddv_scf|^2 =  1.949E-07

      iter #   4 total cpu time :    23.9 secs   av.it.:   9.7
      thresh= 4.415E-05 alpha_mix =  0.700 |ddv_scf|^2 =  1.313E-08

      iter #   5 total cpu time :    24.6 secs   av.it.:   9.8
      thresh= 1.146E-05 alpha_mix =  0.700 |ddv_scf|^2 =  2.257E-10

      iter #   6 total cpu time :    25.3 secs   av.it.:   9.9
      thresh= 1.502E-06 alpha_mix =  0.700 |ddv_scf|^2 =  3.970E-10

      iter #   7 total cpu time :    25.9 secs   av.it.:   8.0
      thresh= 1.992E-06 alpha_mix =  0.700 |ddv_scf|^2 =  5.573E-11

      iter #   8 total cpu time :    26.5 secs   av.it.:   9.2
      thresh= 7.465E-07 alpha_mix =  0.700 |ddv_scf|^2 =  4.134E-13

     End of self-consistent calculation

     Convergence has been achieved 


     Representation #  3 modes #   3  4

     Self-consistent Calculation

      iter #   1 total cpu time :    27.5 secs   av.it.:   5.2
      thresh= 1.000E-02 alpha_mix =  0.700 |ddv_scf|^2 =  4.805E-08

      iter #   2 total cpu time :    28.9 secs   av.it.:  11.7
      thresh= 2.192E-05 alpha_mix =  0.700 |ddv_scf|^2 =  3.088E-09

      iter #   3 total cpu time :    30.1 secs   av.it.:  11.2
      thresh= 5.557E-06 alpha_mix =  0.700 |ddv_scf|^2 =  1.629E-10

      iter #   4 total cpu time :    31.4 secs   av.it.:  11.1
      thresh= 1.276E-06 alpha_mix =  0.700 |ddv_scf|^2 =  6.328E-13

     End of self-consistent calculation

     Convergence has been achieved 


     Representation #  4 modes #   5  6

     Self-consistent Calculation

      iter #   1 total cpu time :    32.5 secs   av.it.:   5.2
      thresh= 1.000E-02 alpha_mix =  0.700 |ddv_scf|^2 =  4.806E-08

      iter #   2 total cpu time :    33.9 secs   av.it.:  11.7
      thresh= 2.192E-05 alpha_mix =  0.700 |ddv_scf|^2 =  3.087E-09

      iter #   3 total cpu time :    35.2 secs   av.it.:  11.4
      thresh= 5.556E-06 alpha_mix =  0.700 |ddv_scf|^2 =  1.628E-10

      iter #   4 total cpu time :    36.5 secs   av.it.:  11.2
      thresh= 1.276E-06 alpha_mix =  0.700 |ddv_scf|^2 =  6.357E-13

     End of self-consistent calculation

     Convergence has been achieved 

     Number of q in the star =    8
     List of q in the star:
          1  -0.250000000   0.250000000  -0.250000000
          2   0.250000000  -0.250000000  -0.250000000
          3   0.250000000  -0.250000000   0.250000000
          4   0.250000000   0.250000000   0.250000000
          5  -0.250000000  -0.250000000  -0.250000000
          6  -0.250000000  -0.250000000   0.250000000
          7  -0.250000000   0.250000000   0.250000000
          8   0.250000000   0.250000000  -0.250000000

     Diagonalizing the dynamical matrix

     q = (   -0.250000000   0.250000000  -0.250000000 ) 

 **************************************************************************
     freq (    1) =       2.806280 [THz] =      93.607420 [cm-1]
     freq (    2) =       2.806280 [THz] =      93.607420 [cm-1]
     freq (    3) =       6.648318 [THz] =     221.764026 [cm-1]
     freq (    4) =      14.051341 [THz] =     468.702277 [cm-1]
     freq (    5) =      14.302004 [THz] =     477.063508 [cm-1]
     freq (    6) =      14.302004 [THz] =     477.063508 [cm-1]
 **************************************************************************

     Mode symmetry, C_3v (3m)   point group:

     freq (  1 -  2) =         93.6  [cm-1]   --> E    L_3           
     freq (  3 -  3) =        221.8  [cm-1]   --> A_1  L_1           
     freq (  4 -  4) =        468.7  [cm-1]   --> A_1  L_1           
     freq (  5 -  6) =        477.1  [cm-1]   --> E    L_3           

     Calculation of q =    0.5000000  -0.5000000   0.5000000

   Info: using nr1, nr2, nr3 values from input

   Info: using nr1, nr2, nr3 values from input

     Parallelization info
     --------------------
     sticks:   dense  smooth     PW     G-vecs:    dense   smooth      PW
     Min         222     109     40                 4369     1545     351
     Max         223     110     41                 4370     1546     354
     Sum         889     439    163                17477     6183    1411



     bravais-lattice index     =            2
     lattice parameter (alat)  =      10.3740  a.u.
     unit-cell volume          =     279.1121 (a.u.)^3
     number of atoms/cell      =            2
     number of atomic types    =            1
     number of electrons       =         8.00
     number of Kohn-Sham states=            4
     kinetic-energy cutoff     =      30.0000  Ry
     charge density cutoff     =     240.0000  Ry
     Exchange-correlation      = SLA  PW   PBE  PBE ( 1  4  3  4 0 0)

     celldm(1)=  10.374000  celldm(2)=   0.000000  celldm(3)=   0.000000
     celldm(4)=   0.000000  celldm(5)=   0.000000  celldm(6)=   0.000000

     crystal axes: (cart. coord. in units of alat)
               a(1) = (  -0.500000   0.000000   0.500000 )  
               a(2) = (   0.000000   0.500000   0.500000 )  
               a(3) = (  -0.500000   0.500000   0.000000 )  

     reciprocal axes: (cart. coord. in units 2 pi/alat)
               b(1) = ( -1.000000 -1.000000  1.000000 )  
               b(2) = (  1.000000  1.000000  1.000000 )  
               b(3) = ( -1.000000  1.000000 -1.000000 )  


     PseudoPot. # 1 for Si read from file:
     /home/s1333534/quantum_espresso/qe-6.1/pseudo/si_pbe_v1.uspp.F.UPF.txt
     MD5 check sum: a056efeee980c13900f22a371efd63c1
     Pseudo is Ultrasoft + core correction, Zval =  4.0
     Generated by new atomic code, or converted to UPF format
     Using radial grid of  899 points,  6 beta functions with: 
                l(1) =   0
                l(2) =   0
                l(3) =   1
                l(4) =   1
                l(5) =   2
                l(6) =   2
     Q(r) pseudized with  8 coefficients,  rinner =    0.900   0.900   0.900
                                                       0.900   0.900

     atomic species   valence    mass     pseudopotential
        Si             4.00    28.08600     Si( 1.00)

     48 Sym. Ops., with inversion, found



   Cartesian axes

     site n.     atom                  positions (alat units)
         1           Si  tau(   1) = (   0.0000000   0.0000000   0.0000000  )
         2           Si  tau(   2) = (   0.2500000   0.2500000   0.2500000  )

     number of k points=    60
                       cart. coord. in units 2pi/alat
        k(    1) = (  -0.1250000   0.1250000   0.1250000), wk =   0.0468750
        k(    2) = (   0.3750000  -0.3750000   0.6250000), wk =   0.0000000
        k(    3) = (  -0.3750000   0.3750000  -0.1250000), wk =   0.0468750
        k(    4) = (   0.1250000  -0.1250000   0.3750000), wk =   0.0000000
        k(    5) = (   0.3750000  -0.3750000   0.6250000), wk =   0.0468750
        k(    6) = (   0.8750000  -0.8750000   1.1250000), wk =   0.0000000
        k(    7) = (   0.1250000  -0.1250000   0.3750000), wk =   0.0468750
        k(    8) = (   0.6250000  -0.6250000   0.8750000), wk =   0.0000000
        k(    9) = (  -0.1250000   0.6250000   0.1250000), wk =   0.0937500
        k(   10) = (   0.3750000   0.1250000   0.6250000), wk =   0.0000000
        k(   11) = (   0.6250000  -0.1250000   0.8750000), wk =   0.0937500
        k(   12) = (   1.1250000  -0.6250000   1.3750000), wk =   0.0000000
        k(   13) = (   0.3750000   0.1250000   0.6250000), wk =   0.0937500
        k(   14) = (   0.8750000  -0.3750000   1.1250000), wk =   0.0000000
        k(   15) = (  -0.1250000  -0.8750000   0.1250000), wk =   0.0937500
        k(   16) = (   0.3750000  -1.3750000   0.6250000), wk =   0.0000000
        k(   17) = (  -0.3750000   0.3750000   0.3750000), wk =   0.0468750
        k(   18) = (   0.1250000  -0.1250000   0.8750000), wk =   0.0000000
        k(   19) = (   0.3750000  -0.3750000   1.1250000), wk =   0.0468750
        k(   20) = (   0.8750000  -0.8750000   1.6250000), wk =   0.0000000
        k(   21) = (   0.1250000  -0.1250000   0.1250000), wk =   0.0156250
        k(   22) = (   0.6250000  -0.6250000   0.6250000), wk =   0.0000000
        k(   23) = (  -0.3750000  -0.3750000  -0.1250000), wk =   0.0937500
        k(   24) = (   0.1250000  -0.8750000   0.3750000), wk =   0.0000000
        k(   25) = (  -0.1250000  -0.3750000   0.3750000), wk =   0.0468750
        k(   26) = (   0.3750000  -0.8750000   0.8750000), wk =   0.0000000
        k(   27) = (   0.3750000   0.3750000   0.6250000), wk =   0.0937500
        k(   28) = (   0.8750000  -0.1250000   1.1250000), wk =   0.0000000
        k(   29) = (   0.6250000   0.3750000  -0.3750000), wk =   0.0468750
        k(   30) = (   1.1250000  -0.1250000   0.1250000), wk =   0.0000000
        k(   31) = (   0.1250000   0.1250000   0.3750000), wk =   0.0937500
        k(   32) = (   0.6250000  -0.3750000   0.8750000), wk =   0.0000000
        k(   33) = (   0.3750000   0.1250000  -0.1250000), wk =   0.0468750
        k(   34) = (   0.8750000  -0.3750000   0.3750000), wk =   0.0000000
        k(   35) = (  -0.1250000  -0.6250000  -0.1250000), wk =   0.0468750
        k(   36) = (   0.3750000  -1.1250000   0.3750000), wk =   0.0000000
        k(   37) = (   0.1250000  -0.6250000   0.1250000), wk =   0.0468750
        k(   38) = (   0.6250000  -1.1250000   0.6250000), wk =   0.0000000
        k(   39) = (   0.6250000   0.1250000   0.8750000), wk =   0.0937500
        k(   40) = (   1.1250000  -0.3750000   1.3750000), wk =   0.0000000
        k(   41) = (  -0.8750000   0.1250000   0.6250000), wk =   0.0937500
        k(   42) = (  -0.3750000  -0.3750000   1.1250000), wk =   0.0000000
        k(   43) = (   0.8750000   0.1250000  -0.6250000), wk =   0.0937500
        k(   44) = (   1.3750000  -0.3750000  -0.1250000), wk =   0.0000000
        k(   45) = (   0.3750000  -0.1250000   0.6250000), wk =   0.0937500
        k(   46) = (   0.8750000  -0.6250000   1.1250000), wk =   0.0000000
        k(   47) = (  -0.6250000  -0.1250000   0.3750000), wk =   0.0937500
        k(   48) = (  -0.1250000  -0.6250000   0.8750000), wk =   0.0000000
        k(   49) = (   0.6250000  -0.1250000  -0.3750000), wk =   0.0937500
        k(   50) = (   1.1250000  -0.6250000   0.1250000), wk =   0.0000000
        k(   51) = (  -0.1250000   0.8750000  -0.1250000), wk =   0.0468750
        k(   52) = (   0.3750000   0.3750000   0.3750000), wk =   0.0000000
        k(   53) = (   0.1250000   0.8750000   0.1250000), wk =   0.0468750
        k(   54) = (   0.6250000   0.3750000   0.6250000), wk =   0.0000000
        k(   55) = (   0.3750000  -0.3750000   0.3750000), wk =   0.0156250
        k(   56) = (   0.8750000  -0.8750000   0.8750000), wk =   0.0000000
        k(   57) = (   0.3750000   0.3750000   1.1250000), wk =   0.0937500
        k(   58) = (   0.8750000  -0.1250000   1.6250000), wk =   0.0000000
        k(   59) = (   1.1250000   0.3750000  -0.3750000), wk =   0.0468750
        k(   60) = (   1.6250000  -0.1250000   0.1250000), wk =   0.0000000

     Dense  grid:    17477 G-vectors     FFT dimensions: (  40,  40,  40)

     Smooth grid:     6183 G-vectors     FFT dimensions: (  25,  25,  25)

     Estimated max dynamical RAM per process >       1.79MB

     Estimated total allocated dynamical RAM >       7.17MB

     The potential is recalculated from file :
     ./_ph0/silicon.10.374.save/charge-density.dat

     Starting wfc are    8 atomic wfcs

     Band Structure Calculation
     Davidson diagonalization with overlap

     ethr =  1.25E-10,  avg # of iterations = 12.2

     total cpu time spent up to now is        2.4 secs

     End of band structure calculation

          k =-0.1250 0.1250 0.1250 (   779 PWs)   bands (ev):

    -5.6805   4.2702   5.5802   5.5802

          k = 0.3750-0.3750 0.6250 (   776 PWs)   bands (ev):

    -3.5423  -0.7537   3.6302   4.3417

          k =-0.3750 0.3750-0.1250 (   781 PWs)   bands (ev):

    -4.6654   1.2980   3.6150   5.1032

          k = 0.1250-0.1250 0.3750 (   785 PWs)   bands (ev):

    -5.1584   2.6597   4.5850   4.6421

          k = 0.3750-0.3750 0.6250 (   776 PWs)   bands (ev):

    -3.5423  -0.7537   3.6302   4.3417

          k = 0.8750-0.8750 1.1250 (   779 PWs)   bands (ev):

    -5.6805   4.2702   5.5802   5.5802

          k = 0.1250-0.1250 0.3750 (   785 PWs)   bands (ev):

    -5.1584   2.6597   4.5850   4.6421

          k = 0.6250-0.6250 0.8750 (   781 PWs)   bands (ev):

    -4.6654   1.2980   3.6150   5.1032

          k =-0.1250 0.6250 0.1250 (   777 PWs)   bands (ev):

    -4.1383   0.9537   3.2731   3.7203

          k = 0.3750 0.1250 0.6250 (   775 PWs)   bands (ev):

    -3.7288   0.0964   2.6364   3.9923

          k = 0.6250-0.1250 0.8750 (   764 PWs)   bands (ev):

    -2.5198  -0.9903   1.9392   3.0020

          k = 1.1250-0.6250 1.3750 (   781 PWs)   bands (ev):

    -4.6654   1.2980   3.6150   5.1032

          k = 0.3750 0.1250 0.6250 (   775 PWs)   bands (ev):

    -3.7288   0.0964   2.6364   3.9923

          k = 0.8750-0.3750 1.1250 (   777 PWs)   bands (ev):

    -4.1383   0.9537   3.2731   3.7203

          k =-0.1250-0.8750 0.1250 (   766 PWs)   bands (ev):

    -2.6828  -0.8956   2.5406   3.2581

          k = 0.3750-1.3750 0.6250 (   776 PWs)   bands (ev):

    -3.5423  -0.7537   3.6302   4.3417

          k =-0.3750 0.3750 0.3750 (   775 PWs)   bands (ev):

    -4.2385   0.0265   4.7999   4.7999

          k = 0.1250-0.1250 0.8750 (   766 PWs)   bands (ev):

    -2.6828  -0.8956   2.5406   3.2581

          k = 0.3750-0.3750 1.1250 (   773 PWs)   bands (ev):

    -3.0518  -0.6817   1.9924   4.0289

          k = 0.8750-0.8750 1.6250 (   777 PWs)   bands (ev):

    -4.1383   0.9537   3.2731   3.7203

          k = 0.1250-0.1250 0.1250 (   779 PWs)   bands (ev):

    -5.6805   4.2702   5.5802   5.5802

          k = 0.6250-0.6250 0.6250 (   775 PWs)   bands (ev):

    -4.2385   0.0265   4.7999   4.7999

          k =-0.3750-0.3750-0.1250 (   781 PWs)   bands (ev):

    -4.6654   1.2980   3.6150   5.1032

          k = 0.1250-0.8750 0.3750 (   764 PWs)   bands (ev):

    -2.5198  -0.9903   1.9392   3.0020

          k =-0.1250-0.3750 0.3750 (   781 PWs)   bands (ev):

    -4.6654   1.2980   3.6150   5.1032

          k = 0.3750-0.8750 0.8750 (   777 PWs)   bands (ev):

    -4.1383   0.9537   3.2731   3.7203

          k = 0.3750 0.3750 0.6250 (   776 PWs)   bands (ev):

    -3.5423  -0.7537   3.6302   4.3417

          k = 0.8750-0.1250 1.1250 (   766 PWs)   bands (ev):

    -2.6828  -0.8956   2.5406   3.2581

          k = 0.6250 0.3750-0.3750 (   776 PWs)   bands (ev):

    -3.5423  -0.7537   3.6302   4.3417

          k = 1.1250-0.1250 0.1250 (   766 PWs)   bands (ev):

    -2.6828  -0.8956   2.5406   3.2581

          k = 0.1250 0.1250 0.3750 (   785 PWs)   bands (ev):

    -5.1584   2.6597   4.5850   4.6421

          k = 0.6250-0.3750 0.8750 (   775 PWs)   bands (ev):

    -3.7288   0.0964   2.6364   3.9923

          k = 0.3750 0.1250-0.1250 (   785 PWs)   bands (ev):

    -5.1584   2.6597   4.5850   4.6421

          k = 0.8750-0.3750 0.3750 (   773 PWs)   bands (ev):

    -3.0518  -0.6817   1.9924   4.0289

          k =-0.1250-0.6250-0.1250 (   777 PWs)   bands (ev):

    -4.1383   0.9537   3.2731   3.7203

          k = 0.3750-1.1250 0.3750 (   773 PWs)   bands (ev):

    -3.0518  -0.6817   1.9924   4.0289

          k = 0.1250-0.6250 0.1250 (   777 PWs)   bands (ev):

    -4.1383   0.9537   3.2731   3.7203

          k = 0.6250-1.1250 0.6250 (   781 PWs)   bands (ev):

    -4.6654   1.2980   3.6150   5.1032

          k = 0.6250 0.1250 0.8750 (   764 PWs)   bands (ev):

    -2.5198  -0.9903   1.9392   3.0020

          k = 1.1250-0.3750 1.3750 (   775 PWs)   bands (ev):

    -3.7288   0.0964   2.6364   3.9923

          k =-0.8750 0.1250 0.6250 (   764 PWs)   bands (ev):

    -2.5198  -0.9903   1.9392   3.0020

          k =-0.3750-0.3750 1.1250 (   773 PWs)   bands (ev):

    -3.0518  -0.6817   1.9924   4.0289

          k = 0.8750 0.1250-0.6250 (   764 PWs)   bands (ev):

    -2.5198  -0.9903   1.9392   3.0020

          k = 1.3750-0.3750-0.1250 (   775 PWs)   bands (ev):

    -3.7288   0.0964   2.6364   3.9923

          k = 0.3750-0.1250 0.6250 (   775 PWs)   bands (ev):

    -3.7288   0.0964   2.6364   3.9923

          k = 0.8750-0.6250 1.1250 (   785 PWs)   bands (ev):

    -5.1584   2.6597   4.5850   4.6421

          k =-0.6250-0.1250 0.3750 (   775 PWs)   bands (ev):

    -3.7288   0.0964   2.6364   3.9923

          k =-0.1250-0.6250 0.8750 (   764 PWs)   bands (ev):

    -2.5198  -0.9903   1.9392   3.0020

          k = 0.6250-0.1250-0.3750 (   775 PWs)   bands (ev):

    -3.7288   0.0964   2.6364   3.9923

          k = 1.1250-0.6250 0.1250 (   764 PWs)   bands (ev):

    -2.5198  -0.9903   1.9392   3.0020

          k =-0.1250 0.8750-0.1250 (   766 PWs)   bands (ev):

    -2.6828  -0.8956   2.5406   3.2581

          k = 0.3750 0.3750 0.3750 (   775 PWs)   bands (ev):

    -4.2385   0.0265   4.7999   4.7999

          k = 0.1250 0.8750 0.1250 (   766 PWs)   bands (ev):

    -2.6828  -0.8956   2.5406   3.2581

          k = 0.6250 0.3750 0.6250 (   776 PWs)   bands (ev):

    -3.5423  -0.7537   3.6302   4.3417

          k = 0.3750-0.3750 0.3750 (   775 PWs)   bands (ev):

    -4.2385   0.0265   4.7999   4.7999

          k = 0.8750-0.8750 0.8750 (   779 PWs)   bands (ev):

    -5.6805   4.2702   5.5802   5.5802

          k = 0.3750 0.3750 1.1250 (   773 PWs)   bands (ev):

    -3.0518  -0.6817   1.9924   4.0289

          k = 0.8750-0.1250 1.6250 (   764 PWs)   bands (ev):

    -2.5198  -0.9903   1.9392   3.0020

          k = 1.1250 0.3750-0.3750 (   773 PWs)   bands (ev):

    -3.0518  -0.6817   1.9924   4.0289

          k = 1.6250-0.1250 0.1250 (   785 PWs)   bands (ev):

    -5.1584   2.6597   4.5850   4.6421

     highest occupied level (ev):     5.5802

     Writing output data file silicon.10.374.save

                                                                                

     bravais-lattice index     =            2
     lattice parameter (alat)  =      10.3740  a.u.
     unit-cell volume          =     279.1121 (a.u.)^3
     number of atoms/cell      =            2
     number of atomic types    =            1
     kinetic-energy cut-off    =      30.0000  Ry
     charge density cut-off    =     240.0000  Ry
     convergence threshold     =      1.0E-12
     beta                      =       0.7000
     number of iterations used =            4
     Exchange-correlation      = SLA  PW   PBE  PBE ( 1  4  3  4 0 0)


     celldm(1)=   10.37400  celldm(2)=    0.00000  celldm(3)=    0.00000
     celldm(4)=    0.00000  celldm(5)=    0.00000  celldm(6)=    0.00000

     crystal axes: (cart. coord. in units of alat)
               a(1) = ( -0.5000  0.0000  0.5000 )  
               a(2) = (  0.0000  0.5000  0.5000 )  
               a(3) = ( -0.5000  0.5000  0.0000 )  

     reciprocal axes: (cart. coord. in units 2 pi/alat)
               b(1) = ( -1.0000 -1.0000  1.0000 )  
               b(2) = (  1.0000  1.0000  1.0000 )  
               b(3) = ( -1.0000  1.0000 -1.0000 )  


     Atoms inside the unit cell: 

     Cartesian axes

     site n.  atom      mass           positions (alat units)
        1     Si  28.0860   tau(    1) = (    0.00000    0.00000    0.00000  )
        2     Si  28.0860   tau(    2) = (    0.25000    0.25000    0.25000  )

     Computing dynamical matrix for 
                    q = (   0.5000000  -0.5000000   0.5000000 )

     13 Sym.Ops. (with q -> -q+G )


     G cutoff =  654.2504  (   4369 G-vectors)     FFT grid: ( 40, 40, 40)
     G cutoff =  327.1252  (   1546 G-vectors)  smooth grid: ( 25, 25, 25)
     number of k points=    60

     PseudoPot. # 1 for Si read from file:
     /home/s1333534/quantum_espresso/qe-6.1/pseudo/si_pbe_v1.uspp.F.UPF.txt
     MD5 check sum: a056efeee980c13900f22a371efd63c1
     Pseudo is Ultrasoft + core correction, Zval =  4.0
     Generated by new atomic code, or converted to UPF format
     Using radial grid of  899 points,  6 beta functions with: 
                l(1) =   0
                l(2) =   0
                l(3) =   1
                l(4) =   1
                l(5) =   2
                l(6) =   2
     Q(r) pseudized with  8 coefficients,  rinner =    0.900   0.900   0.900
                                                       0.900   0.900


     Atomic displacements:
     There are   4 irreducible representations

     Representation     1      1 modes -  To be done

     Representation     2      1 modes -  To be done

     Representation     3      2 modes -  To be done

     Representation     4      2 modes -  To be done



     Alpha used in Ewald sum =   2.5000
     PHONON       :    29.78s CPU        38.77s WALL



     Representation #  1 mode #   1

     Self-consistent Calculation

      iter #   1 total cpu time :    39.1 secs   av.it.:   5.0
      thresh= 1.000E-02 alpha_mix =  0.700 |ddv_scf|^2 =  3.014E-06

      iter #   2 total cpu time :    39.6 secs   av.it.:  10.1
      thresh= 1.736E-04 alpha_mix =  0.700 |ddv_scf|^2 =  2.798E-06

      iter #   3 total cpu time :    40.0 secs   av.it.:   9.4
      thresh= 1.673E-04 alpha_mix =  0.700 |ddv_scf|^2 =  1.652E-09

      iter #   4 total cpu time :    40.5 secs   av.it.:   9.6
      thresh= 4.065E-06 alpha_mix =  0.700 |ddv_scf|^2 =  1.596E-11

      iter #   5 total cpu time :    41.1 secs   av.it.:   9.5
      thresh= 3.995E-07 alpha_mix =  0.700 |ddv_scf|^2 =  2.252E-13

     End of self-consistent calculation

     Convergence has been achieved 


     Representation #  2 mode #   2

     Self-consistent Calculation

      iter #   1 total cpu time :    41.5 secs   av.it.:   6.0
      thresh= 1.000E-02 alpha_mix =  0.700 |ddv_scf|^2 =  4.281E-05

      iter #   2 total cpu time :    41.9 secs   av.it.:  10.0
      thresh= 6.543E-04 alpha_mix =  0.700 |ddv_scf|^2 =  1.336E-04

      iter #   3 total cpu time :    42.6 secs   av.it.:   8.9
      thresh= 1.156E-03 alpha_mix =  0.700 |ddv_scf|^2 =  1.034E-08

      iter #   4 total cpu time :    43.0 secs   av.it.:  10.1
      thresh= 1.017E-05 alpha_mix =  0.700 |ddv_scf|^2 =  5.228E-10

      iter #   5 total cpu time :    43.5 secs   av.it.:  10.4
      thresh= 2.287E-06 alpha_mix =  0.700 |ddv_scf|^2 =  1.530E-11

      iter #   6 total cpu time :    43.9 secs   av.it.:   9.9
      thresh= 3.912E-07 alpha_mix =  0.700 |ddv_scf|^2 =  1.129E-13

     End of self-consistent calculation

     Convergence has been achieved 


     Representation #  3 modes #   3  4

     Self-consistent Calculation

      iter #   1 total cpu time :    44.5 secs   av.it.:   5.0
      thresh= 1.000E-02 alpha_mix =  0.700 |ddv_scf|^2 =  1.948E-08

      iter #   2 total cpu time :    45.3 secs   av.it.:  11.1
      thresh= 1.396E-05 alpha_mix =  0.700 |ddv_scf|^2 =  1.144E-09

      iter #   3 total cpu time :    46.4 secs   av.it.:  10.9
      thresh= 3.382E-06 alpha_mix =  0.700 |ddv_scf|^2 =  3.891E-11

      iter #   4 total cpu time :    47.3 secs   av.it.:  10.8
      thresh= 6.238E-07 alpha_mix =  0.700 |ddv_scf|^2 =  3.183E-13

     End of self-consistent calculation

     Convergence has been achieved 


     Representation #  4 modes #   5  6

     Self-consistent Calculation

      iter #   1 total cpu time :    48.0 secs   av.it.:   5.1
      thresh= 1.000E-02 alpha_mix =  0.700 |ddv_scf|^2 =  1.001E-07

      iter #   2 total cpu time :    48.9 secs   av.it.:  11.2
      thresh= 3.164E-05 alpha_mix =  0.700 |ddv_scf|^2 =  8.055E-09

      iter #   3 total cpu time :    49.7 secs   av.it.:  11.1
      thresh= 8.975E-06 alpha_mix =  0.700 |ddv_scf|^2 =  2.107E-10

      iter #   4 total cpu time :    50.4 secs   av.it.:  10.1
      thresh= 1.452E-06 alpha_mix =  0.700 |ddv_scf|^2 =  3.904E-13

     End of self-consistent calculation

     Convergence has been achieved 

     Number of q in the star =    4
     List of q in the star:
          1   0.500000000  -0.500000000   0.500000000
          2   0.500000000   0.500000000   0.500000000
          3  -0.500000000   0.500000000   0.500000000
          4   0.500000000   0.500000000  -0.500000000

     Diagonalizing the dynamical matrix

     q = (    0.500000000  -0.500000000   0.500000000 ) 

 **************************************************************************
     freq (    1) =       3.359740 [THz] =     112.068853 [cm-1]
     freq (    2) =       3.359740 [THz] =     112.068853 [cm-1]
     freq (    3) =      11.049028 [THz] =     368.555910 [cm-1]
     freq (    4) =      11.738811 [THz] =     391.564580 [cm-1]
     freq (    5) =      14.075876 [THz] =     469.520690 [cm-1]
     freq (    6) =      14.075876 [THz] =     469.520690 [cm-1]
 **************************************************************************

     Calculation of q =    0.0000000   0.5000000   0.0000000

   Info: using nr1, nr2, nr3 values from input

   Info: using nr1, nr2, nr3 values from input

     Parallelization info
     --------------------
     sticks:   dense  smooth     PW     G-vecs:    dense   smooth      PW
     Min         222     109     40                 4369     1545     322
     Max         223     110     42                 4370     1547     323
     Sum         889     439    163                17477     6183    1291



     bravais-lattice index     =            2
     lattice parameter (alat)  =      10.3740  a.u.
     unit-cell volume          =     279.1121 (a.u.)^3
     number of atoms/cell      =            2
     number of atomic types    =            1
     number of electrons       =         8.00
     number of Kohn-Sham states=            4
     kinetic-energy cutoff     =      30.0000  Ry
     charge density cutoff     =     240.0000  Ry
     Exchange-correlation      = SLA  PW   PBE  PBE ( 1  4  3  4 0 0)

     celldm(1)=  10.374000  celldm(2)=   0.000000  celldm(3)=   0.000000
     celldm(4)=   0.000000  celldm(5)=   0.000000  celldm(6)=   0.000000

     crystal axes: (cart. coord. in units of alat)
               a(1) = (  -0.500000   0.000000   0.500000 )  
               a(2) = (   0.000000   0.500000   0.500000 )  
               a(3) = (  -0.500000   0.500000   0.000000 )  

     reciprocal axes: (cart. coord. in units 2 pi/alat)
               b(1) = ( -1.000000 -1.000000  1.000000 )  
               b(2) = (  1.000000  1.000000  1.000000 )  
               b(3) = ( -1.000000  1.000000 -1.000000 )  


     PseudoPot. # 1 for Si read from file:
     /home/s1333534/quantum_espresso/qe-6.1/pseudo/si_pbe_v1.uspp.F.UPF.txt
     MD5 check sum: a056efeee980c13900f22a371efd63c1
     Pseudo is Ultrasoft + core correction, Zval =  4.0
     Generated by new atomic code, or converted to UPF format
     Using radial grid of  899 points,  6 beta functions with: 
                l(1) =   0
                l(2) =   0
                l(3) =   1
                l(4) =   1
                l(5) =   2
                l(6) =   2
     Q(r) pseudized with  8 coefficients,  rinner =    0.900   0.900   0.900
                                                       0.900   0.900

     atomic species   valence    mass     pseudopotential
        Si             4.00    28.08600     Si( 1.00)

     48 Sym. Ops., with inversion, found



   Cartesian axes

     site n.     atom                  positions (alat units)
         1           Si  tau(   1) = (   0.0000000   0.0000000   0.0000000  )
         2           Si  tau(   2) = (   0.2500000   0.2500000   0.2500000  )

     number of k points=    80
                       cart. coord. in units 2pi/alat
        k(    1) = (  -0.1250000   0.1250000   0.1250000), wk =   0.0312500
        k(    2) = (  -0.1250000   0.6250000   0.1250000), wk =   0.0000000
        k(    3) = (  -0.3750000   0.3750000  -0.1250000), wk =   0.0625000
        k(    4) = (  -0.3750000   0.8750000  -0.1250000), wk =   0.0000000
        k(    5) = (   0.3750000  -0.3750000   0.6250000), wk =   0.0625000
        k(    6) = (   0.3750000   0.1250000   0.6250000), wk =   0.0000000
        k(    7) = (   0.1250000  -0.1250000   0.3750000), wk =   0.0625000
        k(    8) = (   0.1250000   0.3750000   0.3750000), wk =   0.0000000
        k(    9) = (  -0.1250000   0.6250000   0.1250000), wk =   0.0312500
        k(   10) = (  -0.1250000   1.1250000   0.1250000), wk =   0.0000000
        k(   11) = (   0.6250000  -0.1250000   0.8750000), wk =   0.0625000
        k(   12) = (   0.6250000   0.3750000   0.8750000), wk =   0.0000000
        k(   13) = (   0.3750000   0.1250000   0.6250000), wk =   0.0625000
        k(   14) = (   0.3750000   0.6250000   0.6250000), wk =   0.0000000
        k(   15) = (  -0.1250000  -0.8750000   0.1250000), wk =   0.0312500
        k(   16) = (  -0.1250000  -0.3750000   0.1250000), wk =   0.0000000
        k(   17) = (  -0.3750000   0.3750000   0.3750000), wk =   0.0312500
        k(   18) = (  -0.3750000   0.8750000   0.3750000), wk =   0.0000000
        k(   19) = (   0.3750000  -0.3750000   1.1250000), wk =   0.0625000
        k(   20) = (   0.3750000   0.1250000   1.1250000), wk =   0.0000000
        k(   21) = (  -0.1250000  -0.1250000   0.1250000), wk =   0.0312500
        k(   22) = (  -0.1250000   0.3750000   0.1250000), wk =   0.0000000
        k(   23) = (   0.1250000  -0.3750000   0.3750000), wk =   0.0625000
        k(   24) = (   0.1250000   0.1250000   0.3750000), wk =   0.0000000
        k(   25) = (   0.3750000  -0.1250000   0.3750000), wk =   0.0312500
        k(   26) = (   0.3750000   0.3750000   0.3750000), wk =   0.0000000
        k(   27) = (   0.3750000   0.1250000   0.3750000), wk =   0.0312500
        k(   28) = (   0.3750000   0.6250000   0.3750000), wk =   0.0000000
        k(   29) = (  -0.6250000   0.3750000  -0.3750000), wk =   0.0625000
        k(   30) = (  -0.6250000   0.8750000  -0.3750000), wk =   0.0000000
        k(   31) = (  -0.3750000   0.6250000  -0.3750000), wk =   0.0312500
        k(   32) = (  -0.3750000   1.1250000  -0.3750000), wk =   0.0000000
        k(   33) = (  -0.3750000  -0.6250000  -0.3750000), wk =   0.0312500
        k(   34) = (  -0.3750000  -0.1250000  -0.3750000), wk =   0.0000000
        k(   35) = (  -0.3750000   0.1250000  -0.1250000), wk =   0.0625000
        k(   36) = (  -0.3750000   0.6250000  -0.1250000), wk =   0.0000000
        k(   37) = (  -0.1250000   0.3750000  -0.1250000), wk =   0.0312500
        k(   38) = (  -0.1250000   0.8750000  -0.1250000), wk =   0.0000000
        k(   39) = (  -0.1250000  -0.3750000  -0.1250000), wk =   0.0312500
        k(   40) = (  -0.1250000   0.1250000  -0.1250000), wk =   0.0000000
        k(   41) = (  -0.1250000  -0.6250000   0.1250000), wk =   0.0312500
        k(   42) = (  -0.1250000  -0.1250000   0.1250000), wk =   0.0000000
        k(   43) = (   0.6250000  -0.1250000  -0.1250000), wk =   0.0625000
        k(   44) = (   0.6250000   0.3750000  -0.1250000), wk =   0.0000000
        k(   45) = (   0.6250000   0.1250000   0.1250000), wk =   0.0625000
        k(   46) = (   0.6250000   0.6250000   0.1250000), wk =   0.0000000
        k(   47) = (  -0.8750000   0.1250000  -0.6250000), wk =   0.0625000
        k(   48) = (  -0.8750000   0.6250000  -0.6250000), wk =   0.0000000
        k(   49) = (  -0.1250000   0.6250000  -0.8750000), wk =   0.0625000
        k(   50) = (  -0.1250000   1.1250000  -0.8750000), wk =   0.0000000
        k(   51) = (  -0.1250000   0.8750000  -0.6250000), wk =   0.0625000
        k(   52) = (  -0.1250000   1.3750000  -0.6250000), wk =   0.0000000
        k(   53) = (  -0.1250000  -0.8750000  -0.6250000), wk =   0.0625000
        k(   54) = (  -0.1250000  -0.3750000  -0.6250000), wk =   0.0000000
        k(   55) = (   0.8750000  -0.6250000   0.1250000), wk =   0.0625000
        k(   56) = (   0.8750000  -0.1250000   0.1250000), wk =   0.0000000
        k(   57) = (  -0.6250000  -0.1250000  -0.3750000), wk =   0.0625000
        k(   58) = (  -0.6250000   0.3750000  -0.3750000), wk =   0.0000000
        k(   59) = (   0.1250000   0.3750000  -0.6250000), wk =   0.0625000
        k(   60) = (   0.1250000   0.8750000  -0.6250000), wk =   0.0000000
        k(   61) = (   0.1250000   0.6250000  -0.3750000), wk =   0.0625000
        k(   62) = (   0.1250000   1.1250000  -0.3750000), wk =   0.0000000
        k(   63) = (   0.1250000  -0.6250000  -0.3750000), wk =   0.0625000
        k(   64) = (   0.1250000  -0.1250000  -0.3750000), wk =   0.0000000
        k(   65) = (   0.6250000  -0.3750000  -0.1250000), wk =   0.0625000
        k(   66) = (   0.6250000   0.1250000  -0.1250000), wk =   0.0000000
        k(   67) = (  -0.1250000   0.8750000   0.1250000), wk =   0.0312500
        k(   68) = (  -0.1250000   1.3750000   0.1250000), wk =   0.0000000
        k(   69) = (  -0.8750000  -0.1250000  -0.1250000), wk =   0.0625000
        k(   70) = (  -0.8750000   0.3750000  -0.1250000), wk =   0.0000000
        k(   71) = (  -0.8750000   0.1250000   0.1250000), wk =   0.0625000
        k(   72) = (  -0.8750000   0.6250000   0.1250000), wk =   0.0000000
        k(   73) = (  -0.3750000  -0.3750000   0.3750000), wk =   0.0312500
        k(   74) = (  -0.3750000   0.1250000   0.3750000), wk =   0.0000000
        k(   75) = (  -1.1250000   0.3750000  -0.3750000), wk =   0.0625000
        k(   76) = (  -1.1250000   0.8750000  -0.3750000), wk =   0.0000000
        k(   77) = (  -0.3750000   1.1250000  -0.3750000), wk =   0.0312500
        k(   78) = (  -0.3750000   1.6250000  -0.3750000), wk =   0.0000000
        k(   79) = (  -0.3750000  -1.1250000  -0.3750000), wk =   0.0312500
        k(   80) = (  -0.3750000  -0.6250000  -0.3750000), wk =   0.0000000

     Dense  grid:    17477 G-vectors     FFT dimensions: (  40,  40,  40)

     Smooth grid:     6183 G-vectors     FFT dimensions: (  25,  25,  25)

     Estimated max dynamical RAM per process >       1.79MB

     Estimated total allocated dynamical RAM >       7.17MB

     The potential is recalculated from file :
     ./_ph0/silicon.10.374.save/charge-density.dat

     Starting wfc are    8 atomic wfcs

     Band Structure Calculation
     Davidson diagonalization with overlap

     ethr =  1.25E-10,  avg # of iterations = 12.2

     total cpu time spent up to now is        3.5 secs

     End of band structure calculation

          k =-0.1250 0.1250 0.1250 (   779 PWs)   bands (ev):

    -5.6805   4.2702   5.5802   5.5802

          k =-0.1250 0.6250 0.1250 (   777 PWs)   bands (ev):

    -4.1383   0.9537   3.2731   3.7203

          k =-0.3750 0.3750-0.1250 (   781 PWs)   bands (ev):

    -4.6654   1.2980   3.6150   5.1032

          k =-0.3750 0.8750-0.1250 (   764 PWs)   bands (ev):

    -2.5198  -0.9903   1.9392   3.0020

          k = 0.3750-0.3750 0.6250 (   776 PWs)   bands (ev):

    -3.5423  -0.7537   3.6302   4.3417

          k = 0.3750 0.1250 0.6250 (   775 PWs)   bands (ev):

    -3.7288   0.0964   2.6364   3.9923

          k = 0.1250-0.1250 0.3750 (   785 PWs)   bands (ev):

    -5.1584   2.6597   4.5850   4.6421

          k = 0.1250 0.3750 0.3750 (   781 PWs)   bands (ev):

    -4.6654   1.2980   3.6150   5.1032

          k =-0.1250 0.6250 0.1250 (   777 PWs)   bands (ev):

    -4.1383   0.9537   3.2731   3.7203

          k =-0.1250 1.1250 0.1250 (   766 PWs)   bands (ev):

    -2.6828  -0.8956   2.5406   3.2581

          k = 0.6250-0.1250 0.8750 (   764 PWs)   bands (ev):

    -2.5198  -0.9903   1.9392   3.0020

          k = 0.6250 0.3750 0.8750 (   775 PWs)   bands (ev):

    -3.7288   0.0964   2.6364   3.9923

          k = 0.3750 0.1250 0.6250 (   775 PWs)   bands (ev):

    -3.7288   0.0964   2.6364   3.9923

          k = 0.3750 0.6250 0.6250 (   776 PWs)   bands (ev):

    -3.5423  -0.7537   3.6302   4.3417

          k =-0.1250-0.8750 0.1250 (   766 PWs)   bands (ev):

    -2.6828  -0.8956   2.5406   3.2581

          k =-0.1250-0.3750 0.1250 (   785 PWs)   bands (ev):

    -5.1584   2.6597   4.5850   4.6421

          k =-0.3750 0.3750 0.3750 (   775 PWs)   bands (ev):

    -4.2385   0.0265   4.7999   4.7999

          k =-0.3750 0.8750 0.3750 (   773 PWs)   bands (ev):

    -3.0518  -0.6817   1.9924   4.0289

          k = 0.3750-0.3750 1.1250 (   773 PWs)   bands (ev):

    -3.0518  -0.6817   1.9924   4.0289

          k = 0.3750 0.1250 1.1250 (   764 PWs)   bands (ev):

    -2.5198  -0.9903   1.9392   3.0020

          k =-0.1250-0.1250 0.1250 (   779 PWs)   bands (ev):

    -5.6805   4.2702   5.5802   5.5802

          k =-0.1250 0.3750 0.1250 (   785 PWs)   bands (ev):

    -5.1584   2.6597   4.5850   4.6421

          k = 0.1250-0.3750 0.3750 (   781 PWs)   bands (ev):

    -4.6654   1.2980   3.6150   5.1032

          k = 0.1250 0.1250 0.3750 (   785 PWs)   bands (ev):

    -5.1584   2.6597   4.5850   4.6421

          k = 0.3750-0.1250 0.3750 (   781 PWs)   bands (ev):

    -4.6654   1.2980   3.6150   5.1032

          k = 0.3750 0.3750 0.3750 (   775 PWs)   bands (ev):

    -4.2385   0.0265   4.7999   4.7999

          k = 0.3750 0.1250 0.3750 (   781 PWs)   bands (ev):

    -4.6654   1.2980   3.6150   5.1032

          k = 0.3750 0.6250 0.3750 (   776 PWs)   bands (ev):

    -3.5423  -0.7537   3.6302   4.3417

          k =-0.6250 0.3750-0.3750 (   776 PWs)   bands (ev):

    -3.5423  -0.7537   3.6302   4.3417

          k =-0.6250 0.8750-0.3750 (   775 PWs)   bands (ev):

    -3.7288   0.0964   2.6364   3.9923

          k =-0.3750 0.6250-0.3750 (   776 PWs)   bands (ev):

    -3.5423  -0.7537   3.6302   4.3417

          k =-0.3750 1.1250-0.3750 (   773 PWs)   bands (ev):

    -3.0518  -0.6817   1.9924   4.0289

          k =-0.3750-0.6250-0.3750 (   776 PWs)   bands (ev):

    -3.5423  -0.7537   3.6302   4.3417

          k =-0.3750-0.1250-0.3750 (   781 PWs)   bands (ev):

    -4.6654   1.2980   3.6150   5.1032

          k =-0.3750 0.1250-0.1250 (   785 PWs)   bands (ev):

    -5.1584   2.6597   4.5850   4.6421

          k =-0.3750 0.6250-0.1250 (   775 PWs)   bands (ev):

    -3.7288   0.0964   2.6364   3.9923

          k =-0.1250 0.3750-0.1250 (   785 PWs)   bands (ev):

    -5.1584   2.6597   4.5850   4.6421

          k =-0.1250 0.8750-0.1250 (   766 PWs)   bands (ev):

    -2.6828  -0.8956   2.5406   3.2581

          k =-0.1250-0.3750-0.1250 (   785 PWs)   bands (ev):

    -5.1584   2.6597   4.5850   4.6421

          k =-0.1250 0.1250-0.1250 (   779 PWs)   bands (ev):

    -5.6805   4.2702   5.5802   5.5802

          k =-0.1250-0.6250 0.1250 (   777 PWs)   bands (ev):

    -4.1383   0.9537   3.2731   3.7203

          k =-0.1250-0.1250 0.1250 (   779 PWs)   bands (ev):

    -5.6805   4.2702   5.5802   5.5802

          k = 0.6250-0.1250-0.1250 (   777 PWs)   bands (ev):

    -4.1383   0.9537   3.2731   3.7203

          k = 0.6250 0.3750-0.1250 (   775 PWs)   bands (ev):

    -3.7288   0.0964   2.6364   3.9923

          k = 0.6250 0.1250 0.1250 (   777 PWs)   bands (ev):

    -4.1383   0.9537   3.2731   3.7203

          k = 0.6250 0.6250 0.1250 (   773 PWs)   bands (ev):

    -3.0518  -0.6817   1.9924   4.0289

          k =-0.8750 0.1250-0.6250 (   764 PWs)   bands (ev):

    -2.5198  -0.9903   1.9392   3.0020

          k =-0.8750 0.6250-0.6250 (   781 PWs)   bands (ev):

    -4.6654   1.2980   3.6150   5.1032

          k =-0.1250 0.6250-0.8750 (   764 PWs)   bands (ev):

    -2.5198  -0.9903   1.9392   3.0020

          k =-0.1250 1.1250-0.8750 (   766 PWs)   bands (ev):

    -2.6828  -0.8956   2.5406   3.2581

          k =-0.1250 0.8750-0.6250 (   764 PWs)   bands (ev):

    -2.5198  -0.9903   1.9392   3.0020

          k =-0.1250 1.3750-0.6250 (   773 PWs)   bands (ev):

    -3.0518  -0.6817   1.9924   4.0289

          k =-0.1250-0.8750-0.6250 (   764 PWs)   bands (ev):

    -2.5198  -0.9903   1.9392   3.0020

          k =-0.1250-0.3750-0.6250 (   775 PWs)   bands (ev):

    -3.7288   0.0964   2.6364   3.9923

          k = 0.8750-0.6250 0.1250 (   764 PWs)   bands (ev):

    -2.5198  -0.9903   1.9392   3.0020

          k = 0.8750-0.1250 0.1250 (   766 PWs)   bands (ev):

    -2.6828  -0.8956   2.5406   3.2581

          k =-0.6250-0.1250-0.3750 (   775 PWs)   bands (ev):

    -3.7288   0.0964   2.6364   3.9923

          k =-0.6250 0.3750-0.3750 (   776 PWs)   bands (ev):

    -3.5423  -0.7537   3.6302   4.3417

          k = 0.1250 0.3750-0.6250 (   775 PWs)   bands (ev):

    -3.7288   0.0964   2.6364   3.9923

          k = 0.1250 0.8750-0.6250 (   764 PWs)   bands (ev):

    -2.5198  -0.9903   1.9392   3.0020

          k = 0.1250 0.6250-0.3750 (   775 PWs)   bands (ev):

    -3.7288   0.0964   2.6364   3.9923

          k = 0.1250 1.1250-0.3750 (   764 PWs)   bands (ev):

    -2.5198  -0.9903   1.9392   3.0020

          k = 0.1250-0.6250-0.3750 (   775 PWs)   bands (ev):

    -3.7288   0.0964   2.6364   3.9923

          k = 0.1250-0.1250-0.3750 (   785 PWs)   bands (ev):

    -5.1584   2.6597   4.5850   4.6421

          k = 0.6250-0.3750-0.1250 (   775 PWs)   bands (ev):

    -3.7288   0.0964   2.6364   3.9923

          k = 0.6250 0.1250-0.1250 (   777 PWs)   bands (ev):

    -4.1383   0.9537   3.2731   3.7203

          k =-0.1250 0.8750 0.1250 (   766 PWs)   bands (ev):

    -2.6828  -0.8956   2.5406   3.2581

          k =-0.1250 1.3750 0.1250 (   777 PWs)   bands (ev):

    -4.1383   0.9537   3.2731   3.7203

          k =-0.8750-0.1250-0.1250 (   766 PWs)   bands (ev):

    -2.6828  -0.8956   2.5406   3.2581

          k =-0.8750 0.3750-0.1250 (   764 PWs)   bands (ev):

    -2.5198  -0.9903   1.9392   3.0020

          k =-0.8750 0.1250 0.1250 (   766 PWs)   bands (ev):

    -2.6828  -0.8956   2.5406   3.2581

          k =-0.8750 0.6250 0.1250 (   764 PWs)   bands (ev):

    -2.5198  -0.9903   1.9392   3.0020

          k =-0.3750-0.3750 0.3750 (   775 PWs)   bands (ev):

    -4.2385   0.0265   4.7999   4.7999

          k =-0.3750 0.1250 0.3750 (   781 PWs)   bands (ev):

    -4.6654   1.2980   3.6150   5.1032

          k =-1.1250 0.3750-0.3750 (   773 PWs)   bands (ev):

    -3.0518  -0.6817   1.9924   4.0289

          k =-1.1250 0.8750-0.3750 (   777 PWs)   bands (ev):

    -4.1383   0.9537   3.2731   3.7203

          k =-0.3750 1.1250-0.3750 (   773 PWs)   bands (ev):

    -3.0518  -0.6817   1.9924   4.0289

          k =-0.3750 1.6250-0.3750 (   775 PWs)   bands (ev):

    -4.2385   0.0265   4.7999   4.7999

          k =-0.3750-1.1250-0.3750 (   773 PWs)   bands (ev):

    -3.0518  -0.6817   1.9924   4.0289

          k =-0.3750-0.6250-0.3750 (   776 PWs)   bands (ev):

    -3.5423  -0.7537   3.6302   4.3417

     highest occupied level (ev):     5.5802

     Writing output data file silicon.10.374.save

                                                                                

     bravais-lattice index     =            2
     lattice parameter (alat)  =      10.3740  a.u.
     unit-cell volume          =     279.1121 (a.u.)^3
     number of atoms/cell      =            2
     number of atomic types    =            1
     kinetic-energy cut-off    =      30.0000  Ry
     charge density cut-off    =     240.0000  Ry
     convergence threshold     =      1.0E-12
     beta                      =       0.7000
     number of iterations used =            4
     Exchange-correlation      = SLA  PW   PBE  PBE ( 1  4  3  4 0 0)


     celldm(1)=   10.37400  celldm(2)=    0.00000  celldm(3)=    0.00000
     celldm(4)=    0.00000  celldm(5)=    0.00000  celldm(6)=    0.00000

     crystal axes: (cart. coord. in units of alat)
               a(1) = ( -0.5000  0.0000  0.5000 )  
               a(2) = (  0.0000  0.5000  0.5000 )  
               a(3) = ( -0.5000  0.5000  0.0000 )  

     reciprocal axes: (cart. coord. in units 2 pi/alat)
               b(1) = ( -1.0000 -1.0000  1.0000 )  
               b(2) = (  1.0000  1.0000  1.0000 )  
               b(3) = ( -1.0000  1.0000 -1.0000 )  


     Atoms inside the unit cell: 

     Cartesian axes

     site n.  atom      mass           positions (alat units)
        1     Si  28.0860   tau(    1) = (    0.00000    0.00000    0.00000  )
        2     Si  28.0860   tau(    2) = (    0.25000    0.25000    0.25000  )

     Computing dynamical matrix for 
                    q = (   0.0000000   0.5000000   0.0000000 )

      8 Sym.Ops. (no q -> -q+G )


     G cutoff =  654.2504  (   4369 G-vectors)     FFT grid: ( 40, 40, 40)
     G cutoff =  327.1252  (   1545 G-vectors)  smooth grid: ( 25, 25, 25)
     number of k points=    80

     PseudoPot. # 1 for Si read from file:
     /home/s1333534/quantum_espresso/qe-6.1/pseudo/si_pbe_v1.uspp.F.UPF.txt
     MD5 check sum: a056efeee980c13900f22a371efd63c1
     Pseudo is Ultrasoft + core correction, Zval =  4.0
     Generated by new atomic code, or converted to UPF format
     Using radial grid of  899 points,  6 beta functions with: 
                l(1) =   0
                l(2) =   0
                l(3) =   1
                l(4) =   1
                l(5) =   2
                l(6) =   2
     Q(r) pseudized with  8 coefficients,  rinner =    0.900   0.900   0.900
                                                       0.900   0.900

     Mode symmetry, C_4v (4mm)  point group:


     Atomic displacements:
     There are   4 irreducible representations

     Representation     1      1 modes -A_1  G_1 D_1  To be done

     Representation     2      1 modes -B_2  G_4 D_2'  To be done

     Representation     3      2 modes -E    G_5 D_5  To be done

     Representation     4      2 modes -E    G_5 D_5  To be done



     Alpha used in Ewald sum =   2.5000
     PHONON       :    40.02s CPU        53.57s WALL



     Representation #  1 mode #   1

     Self-consistent Calculation

      iter #   1 total cpu time :    53.9 secs   av.it.:   6.2
      thresh= 1.000E-02 alpha_mix =  0.700 |ddv_scf|^2 =  3.699E-04

      iter #   2 total cpu time :    54.4 secs   av.it.:   9.5
      thresh= 1.923E-03 alpha_mix =  0.700 |ddv_scf|^2 =  4.939E-03

      iter #   3 total cpu time :    54.9 secs   av.it.:   7.5
      thresh= 7.028E-03 alpha_mix =  0.700 |ddv_scf|^2 =  7.157E-09

      iter #   4 total cpu time :    55.4 secs   av.it.:  10.3
      thresh= 8.460E-06 alpha_mix =  0.700 |ddv_scf|^2 =  7.658E-10

      iter #   5 total cpu time :    55.9 secs   av.it.:   9.8
      thresh= 2.767E-06 alpha_mix =  0.700 |ddv_scf|^2 =  7.952E-11

      iter #   6 total cpu time :    56.3 secs   av.it.:   9.6
      thresh= 8.917E-07 alpha_mix =  0.700 |ddv_scf|^2 =  2.065E-13

     End of self-consistent calculation

     Convergence has been achieved 


     Representation #  2 mode #   2

     Self-consistent Calculation

      iter #   1 total cpu time :    56.8 secs   av.it.:   5.1
      thresh= 1.000E-02 alpha_mix =  0.700 |ddv_scf|^2 =  5.882E-07

      iter #   2 total cpu time :    57.3 secs   av.it.:  10.6
      thresh= 7.670E-05 alpha_mix =  0.700 |ddv_scf|^2 =  1.646E-07

      iter #   3 total cpu time :    57.8 secs   av.it.:  10.2
      thresh= 4.056E-05 alpha_mix =  0.700 |ddv_scf|^2 =  1.691E-09

      iter #   4 total cpu time :    58.4 secs   av.it.:  10.3
      thresh= 4.112E-06 alpha_mix =  0.700 |ddv_scf|^2 =  6.819E-11

      iter #   5 total cpu time :    58.8 secs   av.it.:  10.5
      thresh= 8.257E-07 alpha_mix =  0.700 |ddv_scf|^2 =  3.899E-13

     End of self-consistent calculation

     Convergence has been achieved 


     Representation #  3 modes #   3  4

     Self-consistent Calculation

      iter #   1 total cpu time :    59.6 secs   av.it.:   5.2
      thresh= 1.000E-02 alpha_mix =  0.700 |ddv_scf|^2 =  1.040E-07

      iter #   2 total cpu time :    60.6 secs   av.it.:  11.7
      thresh= 3.226E-05 alpha_mix =  0.700 |ddv_scf|^2 =  1.436E-08

      iter #   3 total cpu time :    61.5 secs   av.it.:  11.3
      thresh= 1.198E-05 alpha_mix =  0.700 |ddv_scf|^2 =  2.418E-10

      iter #   4 total cpu time :    62.7 secs   av.it.:  10.8
      thresh= 1.555E-06 alpha_mix =  0.700 |ddv_scf|^2 =  5.766E-13

     End of self-consistent calculation

     Convergence has been achieved 


     Representation #  4 modes #   5  6

     Self-consistent Calculation

      iter #   1 total cpu time :    63.5 secs   av.it.:   5.2
      thresh= 1.000E-02 alpha_mix =  0.700 |ddv_scf|^2 =  9.536E-08

      iter #   2 total cpu time :    64.6 secs   av.it.:  11.6
      thresh= 3.088E-05 alpha_mix =  0.700 |ddv_scf|^2 =  1.282E-08

      iter #   3 total cpu time :    65.6 secs   av.it.:  11.4
      thresh= 1.132E-05 alpha_mix =  0.700 |ddv_scf|^2 =  2.469E-10

      iter #   4 total cpu time :    66.5 secs   av.it.:  11.1
      thresh= 1.571E-06 alpha_mix =  0.700 |ddv_scf|^2 =  6.158E-13

     End of self-consistent calculation

     Convergence has been achieved 

     Number of q in the star =    6
     List of q in the star:
          1   0.000000000   0.500000000   0.000000000
          2   0.000000000  -0.500000000   0.000000000
          3   0.500000000   0.000000000   0.000000000
          4   0.000000000   0.000000000   0.500000000
          5   0.000000000   0.000000000  -0.500000000
          6  -0.500000000   0.000000000   0.000000000

     Diagonalizing the dynamical matrix

     q = (    0.000000000   0.500000000   0.000000000 ) 

 **************************************************************************
     freq (    1) =       3.792345 [THz] =     126.499005 [cm-1]
     freq (    2) =       3.792345 [THz] =     126.499005 [cm-1]
     freq (    3) =       6.969832 [THz] =     232.488578 [cm-1]
     freq (    4) =      13.615421 [THz] =     454.161553 [cm-1]
     freq (    5) =      13.615421 [THz] =     454.161553 [cm-1]
     freq (    6) =      14.290170 [THz] =     476.668757 [cm-1]
 **************************************************************************

     Mode symmetry, C_4v (4mm)  point group:

     freq (  1 -  2) =        126.5  [cm-1]   --> E    G_5 D_5       
     freq (  3 -  3) =        232.5  [cm-1]   --> A_1  G_1 D_1       
     freq (  4 -  5) =        454.2  [cm-1]   --> E    G_5 D_5       
     freq (  6 -  6) =        476.7  [cm-1]   --> B_2  G_4 D_2'      

     Calculation of q =    0.7500000  -0.2500000   0.7500000

   Info: using nr1, nr2, nr3 values from input

   Info: using nr1, nr2, nr3 values from input

     Parallelization info
     --------------------
     sticks:   dense  smooth     PW     G-vecs:    dense   smooth      PW
     Min         222     109     42                 4369     1545     367
     Max         223     110     43                 4370     1547     368
     Sum         889     439    169                17477     6183    1471



     bravais-lattice index     =            2
     lattice parameter (alat)  =      10.3740  a.u.
     unit-cell volume          =     279.1121 (a.u.)^3
     number of atoms/cell      =            2
     number of atomic types    =            1
     number of electrons       =         8.00
     number of Kohn-Sham states=            4
     kinetic-energy cutoff     =      30.0000  Ry
     charge density cutoff     =     240.0000  Ry
     Exchange-correlation      = SLA  PW   PBE  PBE ( 1  4  3  4 0 0)

     celldm(1)=  10.374000  celldm(2)=   0.000000  celldm(3)=   0.000000
     celldm(4)=   0.000000  celldm(5)=   0.000000  celldm(6)=   0.000000

     crystal axes: (cart. coord. in units of alat)
               a(1) = (  -0.500000   0.000000   0.500000 )  
               a(2) = (   0.000000   0.500000   0.500000 )  
               a(3) = (  -0.500000   0.500000   0.000000 )  

     reciprocal axes: (cart. coord. in units 2 pi/alat)
               b(1) = ( -1.000000 -1.000000  1.000000 )  
               b(2) = (  1.000000  1.000000  1.000000 )  
               b(3) = ( -1.000000  1.000000 -1.000000 )  


     PseudoPot. # 1 for Si read from file:
     /home/s1333534/quantum_espresso/qe-6.1/pseudo/si_pbe_v1.uspp.F.UPF.txt
     MD5 check sum: a056efeee980c13900f22a371efd63c1
     Pseudo is Ultrasoft + core correction, Zval =  4.0
     Generated by new atomic code, or converted to UPF format
     Using radial grid of  899 points,  6 beta functions with: 
                l(1) =   0
                l(2) =   0
                l(3) =   1
                l(4) =   1
                l(5) =   2
                l(6) =   2
     Q(r) pseudized with  8 coefficients,  rinner =    0.900   0.900   0.900
                                                       0.900   0.900

     atomic species   valence    mass     pseudopotential
        Si             4.00    28.08600     Si( 1.00)

     48 Sym. Ops., with inversion, found



   Cartesian axes

     site n.     atom                  positions (alat units)
         1           Si  tau(   1) = (   0.0000000   0.0000000   0.0000000  )
         2           Si  tau(   2) = (   0.2500000   0.2500000   0.2500000  )

     number of k points=   288

     Number of k-points >= 100: set verbosity='high' to print them.

     Dense  grid:    17477 G-vectors     FFT dimensions: (  40,  40,  40)

     Smooth grid:     6183 G-vectors     FFT dimensions: (  25,  25,  25)

     Estimated max dynamical RAM per process >       1.79MB

     Estimated total allocated dynamical RAM >       7.17MB

     The potential is recalculated from file :
     ./_ph0/silicon.10.374.save/charge-density.dat

     Starting wfc are    8 atomic wfcs

     Band Structure Calculation
     Davidson diagonalization with overlap

     ethr =  1.25E-10,  avg # of iterations = 12.1

     total cpu time spent up to now is        6.8 secs

     End of band structure calculation

     Number of k-points >= 100: set verbosity='high' to print the bands.

     highest occupied level (ev):     5.5802

     Writing output data file silicon.10.374.save

                                                                                

     bravais-lattice index     =            2
     lattice parameter (alat)  =      10.3740  a.u.
     unit-cell volume          =     279.1121 (a.u.)^3
     number of atoms/cell      =            2
     number of atomic types    =            1
     kinetic-energy cut-off    =      30.0000  Ry
     charge density cut-off    =     240.0000  Ry
     convergence threshold     =      1.0E-12
     beta                      =       0.7000
     number of iterations used =            4
     Exchange-correlation      = SLA  PW   PBE  PBE ( 1  4  3  4 0 0)


     celldm(1)=   10.37400  celldm(2)=    0.00000  celldm(3)=    0.00000
     celldm(4)=    0.00000  celldm(5)=    0.00000  celldm(6)=    0.00000

     crystal axes: (cart. coord. in units of alat)
               a(1) = ( -0.5000  0.0000  0.5000 )  
               a(2) = (  0.0000  0.5000  0.5000 )  
               a(3) = ( -0.5000  0.5000  0.0000 )  

     reciprocal axes: (cart. coord. in units 2 pi/alat)
               b(1) = ( -1.0000 -1.0000  1.0000 )  
               b(2) = (  1.0000  1.0000  1.0000 )  
               b(3) = ( -1.0000  1.0000 -1.0000 )  


     Atoms inside the unit cell: 

     Cartesian axes

     site n.  atom      mass           positions (alat units)
        1     Si  28.0860   tau(    1) = (    0.00000    0.00000    0.00000  )
        2     Si  28.0860   tau(    2) = (    0.25000    0.25000    0.25000  )

     Computing dynamical matrix for 
                    q = (   0.7500000  -0.2500000   0.7500000 )

      2 Sym.Ops. (no q -> -q+G )


     G cutoff =  654.2504  (   4369 G-vectors)     FFT grid: ( 40, 40, 40)
     G cutoff =  327.1252  (   1547 G-vectors)  smooth grid: ( 25, 25, 25)
     number of k points=   288

     PseudoPot. # 1 for Si read from file:
     /home/s1333534/quantum_espresso/qe-6.1/pseudo/si_pbe_v1.uspp.F.UPF.txt
     MD5 check sum: a056efeee980c13900f22a371efd63c1
     Pseudo is Ultrasoft + core correction, Zval =  4.0
     Generated by new atomic code, or converted to UPF format
     Using radial grid of  899 points,  6 beta functions with: 
                l(1) =   0
                l(2) =   0
                l(3) =   1
                l(4) =   1
                l(5) =   2
                l(6) =   2
     Q(r) pseudized with  8 coefficients,  rinner =    0.900   0.900   0.900
                                                       0.900   0.900

     Mode symmetry, C_s (m)     point group:


     Atomic displacements:
     There are   6 irreducible representations

     Representation     1      1 modes -A'  To be done

     Representation     2      1 modes -A'  To be done

     Representation     3      1 modes -A'  To be done

     Representation     4      1 modes -A'  To be done

     Representation     5      1 modes -A''  To be done

     Representation     6      1 modes -A''  To be done



     Alpha used in Ewald sum =   2.5000
     PHONON       :  0m54.69s CPU     1m12.12s WALL



     Representation #  1 mode #   1

     Self-consistent Calculation

      iter #   1 total cpu time :    73.0 secs   av.it.:   5.6
      thresh= 1.000E-02 alpha_mix =  0.700 |ddv_scf|^2 =  7.553E-06

      iter #   2 total cpu time :    74.4 secs   av.it.:  10.7
      thresh= 2.748E-04 alpha_mix =  0.700 |ddv_scf|^2 =  2.032E-05

      iter #   3 total cpu time :    75.7 secs   av.it.:   9.4
      thresh= 4.508E-04 alpha_mix =  0.700 |ddv_scf|^2 =  1.359E-07

      iter #   4 total cpu time :    77.1 secs   av.it.:  10.1
      thresh= 3.687E-05 alpha_mix =  0.700 |ddv_scf|^2 =  2.754E-09

      iter #   5 total cpu time :    78.5 secs   av.it.:  10.7
      thresh= 5.248E-06 alpha_mix =  0.700 |ddv_scf|^2 =  4.656E-10

      iter #   6 total cpu time :    79.9 secs   av.it.:  10.6
      thresh= 2.158E-06 alpha_mix =  0.700 |ddv_scf|^2 =  7.535E-12

      iter #   7 total cpu time :    81.2 secs   av.it.:  10.8
      thresh= 2.745E-07 alpha_mix =  0.700 |ddv_scf|^2 =  2.911E-13

     End of self-consistent calculation

     Convergence has been achieved 


     Representation #  2 mode #   2

     Self-consistent Calculation

      iter #   1 total cpu time :    82.4 secs   av.it.:   5.8
      thresh= 1.000E-02 alpha_mix =  0.700 |ddv_scf|^2 =  1.349E-05

      iter #   2 total cpu time :    83.7 secs   av.it.:  10.6
      thresh= 3.673E-04 alpha_mix =  0.700 |ddv_scf|^2 =  3.932E-05

      iter #   3 total cpu time :    85.0 secs   av.it.:   9.2
      thresh= 6.271E-04 alpha_mix =  0.700 |ddv_scf|^2 =  9.326E-08

      iter #   4 total cpu time :    86.4 secs   av.it.:  10.4
      thresh= 3.054E-05 alpha_mix =  0.700 |ddv_scf|^2 =  3.117E-09

      iter #   5 total cpu time :    87.8 secs   av.it.:  10.6
      thresh= 5.583E-06 alpha_mix =  0.700 |ddv_scf|^2 =  6.339E-10

      iter #   6 total cpu time :    89.2 secs   av.it.:  10.5
      thresh= 2.518E-06 alpha_mix =  0.700 |ddv_scf|^2 =  6.677E-12

      iter #   7 total cpu time :    90.5 secs   av.it.:  10.8
      thresh= 2.584E-07 alpha_mix =  0.700 |ddv_scf|^2 =  2.419E-13

     End of self-consistent calculation

     Convergence has been achieved 


     Representation #  3 mode #   3

     Self-consistent Calculation

      iter #   1 total cpu time :    91.6 secs   av.it.:   5.7
      thresh= 1.000E-02 alpha_mix =  0.700 |ddv_scf|^2 =  1.057E-05

      iter #   2 total cpu time :    93.0 secs   av.it.:  10.7
      thresh= 3.251E-04 alpha_mix =  0.700 |ddv_scf|^2 =  2.889E-05

      iter #   3 total cpu time :    94.2 secs   av.it.:   9.2
      thresh= 5.375E-04 alpha_mix =  0.700 |ddv_scf|^2 =  1.622E-07

      iter #   4 total cpu time :    95.6 secs   av.it.:  10.1
      thresh= 4.028E-05 alpha_mix =  0.700 |ddv_scf|^2 =  3.176E-09

      iter #   5 total cpu time :    96.9 secs   av.it.:  10.7
      thresh= 5.635E-06 alpha_mix =  0.700 |ddv_scf|^2 =  6.229E-10

      iter #   6 total cpu time :    98.3 secs   av.it.:  10.5
      thresh= 2.496E-06 alpha_mix =  0.700 |ddv_scf|^2 =  4.654E-12

      iter #   7 total cpu time :    99.7 secs   av.it.:  10.7
      thresh= 2.157E-07 alpha_mix =  0.700 |ddv_scf|^2 =  1.380E-13

     End of self-consistent calculation

     Convergence has been achieved 


     Representation #  4 mode #   4

     Self-consistent Calculation

      iter #   1 total cpu time :   100.7 secs   av.it.:   5.5
      thresh= 1.000E-02 alpha_mix =  0.700 |ddv_scf|^2 =  4.622E-06

      iter #   2 total cpu time :   102.1 secs   av.it.:  10.9
      thresh= 2.150E-04 alpha_mix =  0.700 |ddv_scf|^2 =  9.874E-06

      iter #   3 total cpu time :   103.4 secs   av.it.:   9.7
      thresh= 3.142E-04 alpha_mix =  0.700 |ddv_scf|^2 =  2.135E-07

      iter #   4 total cpu time :   105.3 secs   av.it.:  10.0
      thresh= 4.620E-05 alpha_mix =  0.700 |ddv_scf|^2 =  2.723E-09

      iter #   5 total cpu time :   106.7 secs   av.it.:  10.7
      thresh= 5.218E-06 alpha_mix =  0.700 |ddv_scf|^2 =  5.088E-10

      iter #   6 total cpu time :   108.0 secs   av.it.:  10.5
      thresh= 2.256E-06 alpha_mix =  0.700 |ddv_scf|^2 =  3.153E-12

      iter #   7 total cpu time :   109.4 secs   av.it.:  10.8
      thresh= 1.776E-07 alpha_mix =  0.700 |ddv_scf|^2 =  1.500E-13

     End of self-consistent calculation

     Convergence has been achieved 


     Representation #  5 mode #   5

     Self-consistent Calculation

      iter #   1 total cpu time :   110.7 secs   av.it.:   5.2
      thresh= 1.000E-02 alpha_mix =  0.700 |ddv_scf|^2 =  4.807E-07

      iter #   2 total cpu time :   112.1 secs   av.it.:  10.4
      thresh= 6.933E-05 alpha_mix =  0.700 |ddv_scf|^2 =  7.853E-08

      iter #   3 total cpu time :   113.4 secs   av.it.:  10.2
      thresh= 2.802E-05 alpha_mix =  0.700 |ddv_scf|^2 =  1.046E-09

      iter #   4 total cpu time :   114.8 secs   av.it.:   9.8
      thresh= 3.234E-06 alpha_mix =  0.700 |ddv_scf|^2 =  2.478E-12

      iter #   5 total cpu time :   116.1 secs   av.it.:  10.3
      thresh= 1.574E-07 alpha_mix =  0.700 |ddv_scf|^2 =  7.066E-14

     End of self-consistent calculation

     Convergence has been achieved 


     Representation #  6 mode #   6

     Self-consistent Calculation

      iter #   1 total cpu time :   117.2 secs   av.it.:   5.2
      thresh= 1.000E-02 alpha_mix =  0.700 |ddv_scf|^2 =  4.807E-07

      iter #   2 total cpu time :   118.6 secs   av.it.:  10.4
[...]
        k(   59) = (  -0.8750000   0.1250000  -0.1250000), wk =   0.0625000
        k(   60) = (  -1.3750000  -0.8750000  -0.1250000), wk =   0.0000000
        k(   61) = (  -1.1250000   0.3750000  -0.3750000), wk =   0.0625000
        k(   62) = (  -1.6250000  -0.6250000  -0.3750000), wk =   0.0000000
        k(   63) = (  -0.3750000   0.3750000   1.1250000), wk =   0.0625000
        k(   64) = (  -0.8750000  -0.6250000   1.1250000), wk =   0.0000000

     Dense  grid:    17477 G-vectors     FFT dimensions: (  40,  40,  40)

     Smooth grid:     6183 G-vectors     FFT dimensions: (  25,  25,  25)

     Estimated max dynamical RAM per process >       1.79MB

     Estimated total allocated dynamical RAM >       7.17MB

     The potential is recalculated from file :
     ./_ph0/silicon.10.374.save/charge-density.dat

     Starting wfc are    8 atomic wfcs

     Band Structure Calculation
     Davidson diagonalization with overlap

     ethr =  1.25E-10,  avg # of iterations = 12.1

     total cpu time spent up to now is       10.9 secs

     End of band structure calculation

          k =-0.1250 0.1250 0.1250 (   779 PWs)   bands (ev):

    -5.6805   4.2702   5.5802   5.5802

          k =-0.6250-0.8750 0.1250 (   764 PWs)   bands (ev):

    -2.5198  -0.9903   1.9392   3.0020

          k =-0.3750 0.3750-0.1250 (   781 PWs)   bands (ev):

    -4.6654   1.2980   3.6150   5.1032

          k =-0.8750-0.6250-0.1250 (   764 PWs)   bands (ev):

    -2.5198  -0.9903   1.9392   3.0020

          k = 0.3750-0.3750 0.6250 (   776 PWs)   bands (ev):

    -3.5423  -0.7537   3.6302   4.3417

          k =-0.1250-1.3750 0.6250 (   773 PWs)   bands (ev):

    -3.0518  -0.6817   1.9924   4.0289

          k = 0.1250-0.1250 0.3750 (   785 PWs)   bands (ev):

    -5.1584   2.6597   4.5850   4.6421

          k =-0.3750-1.1250 0.3750 (   773 PWs)   bands (ev):

    -3.0518  -0.6817   1.9924   4.0289

          k =-0.1250 0.6250 0.1250 (   777 PWs)   bands (ev):

    -4.1383   0.9537   3.2731   3.7203

          k =-0.6250-0.3750 0.1250 (   775 PWs)   bands (ev):

    -3.7288   0.0964   2.6364   3.9923

          k = 0.6250-0.1250 0.8750 (   764 PWs)   bands (ev):

    -2.5198  -0.9903   1.9392   3.0020

          k = 0.1250-1.1250 0.8750 (   766 PWs)   bands (ev):

    -2.6828  -0.8956   2.5406   3.2581

          k = 0.3750 0.1250 0.6250 (   775 PWs)   bands (ev):

    -3.7288   0.0964   2.6364   3.9923

          k =-0.1250-0.8750 0.6250 (   764 PWs)   bands (ev):

    -2.5198  -0.9903   1.9392   3.0020

          k =-0.1250-0.8750 0.1250 (   766 PWs)   bands (ev):

    -2.6828  -0.8956   2.5406   3.2581

          k =-0.6250-1.8750 0.1250 (   777 PWs)   bands (ev):

    -4.1383   0.9537   3.2731   3.7203

          k =-0.3750 0.3750 0.3750 (   775 PWs)   bands (ev):

    -4.2385   0.0265   4.7999   4.7999

          k =-0.8750-0.6250 0.3750 (   775 PWs)   bands (ev):

    -3.7288   0.0964   2.6364   3.9923

          k = 0.3750-0.3750 1.1250 (   773 PWs)   bands (ev):

    -3.0518  -0.6817   1.9924   4.0289

          k =-0.1250-1.3750 1.1250 (   764 PWs)   bands (ev):

    -2.5198  -0.9903   1.9392   3.0020

          k = 0.1250-0.3750 0.3750 (   781 PWs)   bands (ev):

    -4.6654   1.2980   3.6150   5.1032

          k =-0.3750-1.3750 0.3750 (   776 PWs)   bands (ev):

    -3.5423  -0.7537   3.6302   4.3417

          k = 0.3750-0.3750-0.1250 (   781 PWs)   bands (ev):

    -4.6654   1.2980   3.6150   5.1032

          k =-0.1250-1.3750-0.1250 (   777 PWs)   bands (ev):

    -4.1383   0.9537   3.2731   3.7203

          k =-0.6250 0.3750-0.3750 (   776 PWs)   bands (ev):

    -3.5423  -0.7537   3.6302   4.3417

          k =-1.1250-0.6250-0.3750 (   775 PWs)   bands (ev):

    -3.7288   0.0964   2.6364   3.9923

          k =-0.3750 0.3750 0.6250 (   776 PWs)   bands (ev):

    -3.5423  -0.7537   3.6302   4.3417

          k =-0.8750-0.6250 0.6250 (   781 PWs)   bands (ev):

    -4.6654   1.2980   3.6150   5.1032

          k =-0.3750 0.1250-0.1250 (   785 PWs)   bands (ev):

    -5.1584   2.6597   4.5850   4.6421

          k =-0.8750-0.8750-0.1250 (   766 PWs)   bands (ev):

    -2.6828  -0.8956   2.5406   3.2581

          k =-0.1250 0.1250 0.3750 (   785 PWs)   bands (ev):

    -5.1584   2.6597   4.5850   4.6421

          k =-0.6250-0.8750 0.3750 (   775 PWs)   bands (ev):

    -3.7288   0.0964   2.6364   3.9923

          k = 0.1250 0.6250-0.1250 (   777 PWs)   bands (ev):

    -4.1383   0.9537   3.2731   3.7203

          k =-0.3750-0.3750-0.1250 (   781 PWs)   bands (ev):

    -4.6654   1.2980   3.6150   5.1032

          k = 0.6250 0.1250-0.1250 (   777 PWs)   bands (ev):

    -4.1383   0.9537   3.2731   3.7203

          k = 0.1250-0.8750-0.1250 (   766 PWs)   bands (ev):

    -2.6828  -0.8956   2.5406   3.2581

          k =-0.8750 0.1250-0.6250 (   764 PWs)   bands (ev):

    -2.5198  -0.9903   1.9392   3.0020

          k =-1.3750-0.8750-0.6250 (   781 PWs)   bands (ev):

    -4.6654   1.2980   3.6150   5.1032

          k = 0.8750-0.1250 0.6250 (   764 PWs)   bands (ev):

    -2.5198  -0.9903   1.9392   3.0020

          k = 0.3750-1.1250 0.6250 (   775 PWs)   bands (ev):

    -3.7288   0.0964   2.6364   3.9923

          k =-0.6250 0.1250 0.8750 (   764 PWs)   bands (ev):

    -2.5198  -0.9903   1.9392   3.0020

          k =-1.1250-0.8750 0.8750 (   779 PWs)   bands (ev):

    -5.6805   4.2702   5.5802   5.5802

          k =-0.1250 0.8750 0.6250 (   764 PWs)   bands (ev):

    -2.5198  -0.9903   1.9392   3.0020

          k =-0.6250-0.1250 0.6250 (   773 PWs)   bands (ev):

    -3.0518  -0.6817   1.9924   4.0289

          k = 0.1250 0.8750-0.6250 (   764 PWs)   bands (ev):

    -2.5198  -0.9903   1.9392   3.0020

          k =-0.3750-0.1250-0.6250 (   775 PWs)   bands (ev):

    -3.7288   0.0964   2.6364   3.9923

          k =-0.6250-0.1250-0.3750 (   775 PWs)   bands (ev):

    -3.7288   0.0964   2.6364   3.9923

          k =-1.1250-1.1250-0.3750 (   777 PWs)   bands (ev):

    -4.1383   0.9537   3.2731   3.7203

          k = 0.6250 0.1250 0.3750 (   775 PWs)   bands (ev):

    -3.7288   0.0964   2.6364   3.9923

          k = 0.1250-0.8750 0.3750 (   764 PWs)   bands (ev):

    -2.5198  -0.9903   1.9392   3.0020

          k =-0.3750-0.1250 0.6250 (   775 PWs)   bands (ev):

    -3.7288   0.0964   2.6364   3.9923

          k =-0.8750-1.1250 0.6250 (   785 PWs)   bands (ev):

    -5.1584   2.6597   4.5850   4.6421

          k = 0.1250 0.6250 0.3750 (   775 PWs)   bands (ev):

    -3.7288   0.0964   2.6364   3.9923

          k =-0.3750-0.3750 0.3750 (   775 PWs)   bands (ev):

    -4.2385   0.0265   4.7999   4.7999

          k =-0.1250 0.6250-0.3750 (   775 PWs)   bands (ev):

    -3.7288   0.0964   2.6364   3.9923

          k =-0.6250-0.3750-0.3750 (   776 PWs)   bands (ev):

    -3.5423  -0.7537   3.6302   4.3417

          k = 0.1250-0.8750-0.1250 (   766 PWs)   bands (ev):

    -2.6828  -0.8956   2.5406   3.2581

          k =-0.3750-1.8750-0.1250 (   785 PWs)   bands (ev):

    -5.1584   2.6597   4.5850   4.6421

          k =-0.8750 0.1250-0.1250 (   766 PWs)   bands (ev):

    -2.6828  -0.8956   2.5406   3.2581

          k =-1.3750-0.8750-0.1250 (   764 PWs)   bands (ev):

    -2.5198  -0.9903   1.9392   3.0020

          k =-1.1250 0.3750-0.3750 (   773 PWs)   bands (ev):

    -3.0518  -0.6817   1.9924   4.0289

          k =-1.6250-0.6250-0.3750 (   776 PWs)   bands (ev):

    -3.5423  -0.7537   3.6302   4.3417

          k =-0.3750 0.3750 1.1250 (   773 PWs)   bands (ev):

    -3.0518  -0.6817   1.9924   4.0289

          k =-0.8750-0.6250 1.1250 (   785 PWs)   bands (ev):

    -5.1584   2.6597   4.5850   4.6421

     highest occupied level (ev):     5.5802

     Writing output data file silicon.10.374.save

                                                                                

     bravais-lattice index     =            2
     lattice parameter (alat)  =      10.3740  a.u.
     unit-cell volume          =     279.1121 (a.u.)^3
     number of atoms/cell      =            2
     number of atomic types    =            1
     kinetic-energy cut-off    =      30.0000  Ry
     charge density cut-off    =     240.0000  Ry
     convergence threshold     =      1.0E-12
     beta                      =       0.7000
     number of iterations used =            4
     Exchange-correlation      = SLA  PW   PBE  PBE ( 1  4  3  4 0 0)


     celldm(1)=   10.37400  celldm(2)=    0.00000  celldm(3)=    0.00000
     celldm(4)=    0.00000  celldm(5)=    0.00000  celldm(6)=    0.00000

     crystal axes: (cart. coord. in units of alat)
               a(1) = ( -0.5000  0.0000  0.5000 )  
               a(2) = (  0.0000  0.5000  0.5000 )  
               a(3) = ( -0.5000  0.5000  0.0000 )  

     reciprocal axes: (cart. coord. in units 2 pi/alat)
               b(1) = ( -1.0000 -1.0000  1.0000 )  
               b(2) = (  1.0000  1.0000  1.0000 )  
               b(3) = ( -1.0000  1.0000 -1.0000 )  


     Atoms inside the unit cell: 

     Cartesian axes

     site n.  atom      mass           positions (alat units)
        1     Si  28.0860   tau(    1) = (    0.00000    0.00000    0.00000  )
        2     Si  28.0860   tau(    2) = (    0.25000    0.25000    0.25000  )

     Computing dynamical matrix for 
                    q = (  -0.5000000  -1.0000000   0.0000000 )

      8 Sym.Ops. (no q -> -q+G )


     G cutoff =  654.2504  (   4369 G-vectors)     FFT grid: ( 40, 40, 40)
     G cutoff =  327.1252  (   1546 G-vectors)  smooth grid: ( 25, 25, 25)
     number of k points=    64

     PseudoPot. # 1 for Si read from file:
     /home/s1333534/quantum_espresso/qe-6.1/pseudo/si_pbe_v1.uspp.F.UPF.txt
     MD5 check sum: a056efeee980c13900f22a371efd63c1
     Pseudo is Ultrasoft + core correction, Zval =  4.0
     Generated by new atomic code, or converted to UPF format
     Using radial grid of  899 points,  6 beta functions with: 
                l(1) =   0
                l(2) =   0
                l(3) =   1
                l(4) =   1
                l(5) =   2
                l(6) =   2
     Q(r) pseudized with  8 coefficients,  rinner =    0.900   0.900   0.900
                                                       0.900   0.900


     Atomic displacements:
     There are   3 irreducible representations

     Representation     1      2 modes -  To be done

     Representation     2      2 modes -  To be done

     Representation     3      2 modes -  To be done



     Alpha used in Ewald sum =   2.5000
     PHONON       :  2m 8.95s CPU     2m43.93s WALL



     Representation #  1 modes #   1  2

     Self-consistent Calculation

      iter #   1 total cpu time :   164.7 secs   av.it.:   5.7
      thresh= 1.000E-02 alpha_mix =  0.700 |ddv_scf|^2 =  7.789E-07

      iter #   2 total cpu time :   165.6 secs   av.it.:  11.8
      thresh= 8.825E-05 alpha_mix =  0.700 |ddv_scf|^2 =  4.399E-07

      iter #   3 total cpu time :   166.5 secs   av.it.:  11.3
      thresh= 6.632E-05 alpha_mix =  0.700 |ddv_scf|^2 =  4.270E-10

      iter #   4 total cpu time :   167.3 secs   av.it.:  11.1
      thresh= 2.066E-06 alpha_mix =  0.700 |ddv_scf|^2 =  1.928E-12

      iter #   5 total cpu time :   168.1 secs   av.it.:  11.3
      thresh= 1.389E-07 alpha_mix =  0.700 |ddv_scf|^2 =  5.081E-14

     End of self-consistent calculation

     Convergence has been achieved 


     Representation #  2 modes #   3  4

     Self-consistent Calculation

      iter #   1 total cpu time :   168.8 secs   av.it.:   5.6
      thresh= 1.000E-02 alpha_mix =  0.700 |ddv_scf|^2 =  1.214E-06

      iter #   2 total cpu time :   169.7 secs   av.it.:  11.8
      thresh= 1.102E-04 alpha_mix =  0.700 |ddv_scf|^2 =  1.667E-06

      iter #   3 total cpu time :   170.5 secs   av.it.:  11.0
      thresh= 1.291E-04 alpha_mix =  0.700 |ddv_scf|^2 =  5.116E-10

      iter #   4 total cpu time :   171.4 secs   av.it.:  11.1
      thresh= 2.262E-06 alpha_mix =  0.700 |ddv_scf|^2 =  8.553E-12

      iter #   5 total cpu time :   172.2 secs   av.it.:  11.3
      thresh= 2.925E-07 alpha_mix =  0.700 |ddv_scf|^2 =  1.358E-13

     End of self-consistent calculation

     Convergence has been achieved 


     Representation #  3 modes #   5  6

     Self-consistent Calculation

      iter #   1 total cpu time :   173.0 secs   av.it.:   5.3
      thresh= 1.000E-02 alpha_mix =  0.700 |ddv_scf|^2 =  3.167E-07

      iter #   2 total cpu time :   173.9 secs   av.it.:  11.8
      thresh= 5.627E-05 alpha_mix =  0.700 |ddv_scf|^2 =  1.847E-07

      iter #   3 total cpu time :   174.8 secs   av.it.:  11.2
      thresh= 4.298E-05 alpha_mix =  0.700 |ddv_scf|^2 =  3.691E-10

      iter #   4 total cpu time :   175.7 secs   av.it.:  11.1
      thresh= 1.921E-06 alpha_mix =  0.700 |ddv_scf|^2 =  4.477E-12

      iter #   5 total cpu time :   176.4 secs   av.it.:  11.2
      thresh= 2.116E-07 alpha_mix =  0.700 |ddv_scf|^2 =  6.068E-14

     End of self-consistent calculation

     Convergence has been achieved 

     Number of q in the star =    6
     List of q in the star:
          1  -0.500000000  -1.000000000   0.000000000
          2   0.000000000   1.000000000   0.500000000
          3   0.000000000  -1.000000000  -0.500000000
          4   0.500000000   1.000000000   0.000000000
          5  -1.000000000  -0.500000000   0.000000000
          6   0.000000000  -0.500000000  -1.000000000

     Diagonalizing the dynamical matrix

     q = (   -0.500000000  -1.000000000   0.000000000 ) 

 **************************************************************************
     freq (    1) =       6.048662 [THz] =     201.761650 [cm-1]
     freq (    2) =       6.048662 [THz] =     201.761650 [cm-1]
     freq (    3) =      10.182529 [THz] =     339.652608 [cm-1]
     freq (    4) =      10.182529 [THz] =     339.652608 [cm-1]
     freq (    5) =      13.320405 [THz] =     444.320884 [cm-1]
     freq (    6) =      13.320405 [THz] =     444.320884 [cm-1]
 **************************************************************************

     init_run     :      1.27s CPU      1.32s WALL (       7 calls)
     electrons    :      7.42s CPU      7.97s WALL (       7 calls)

     Called by init_run:
     wfcinit      :      0.00s CPU      0.02s WALL (       7 calls)
     potinit      :      0.10s CPU      0.12s WALL (       7 calls)

     Called by electrons:
     c_bands      :      7.42s CPU      7.97s WALL (       7 calls)
     v_of_rho     :      0.09s CPU      0.09s WALL (       8 calls)
     newd         :      0.12s CPU      0.12s WALL (       8 calls)

     Called by c_bands:
     init_us_2    :      1.63s CPU      1.57s WALL (   15896 calls)
     cegterg      :      6.20s CPU      6.65s WALL (     796 calls)

     Called by sum_band:

     Called by *egterg:
     h_psi        :     70.97s CPU     76.11s WALL (  154797 calls)
     s_psi        :      5.89s CPU      7.03s WALL (  311852 calls)
     g_psi        :      0.05s CPU      0.07s WALL (    9666 calls)
     cdiaghg      :      0.56s CPU      0.55s WALL (   10462 calls)

     Called by h_psi:
     h_psi:pot    :     70.54s CPU     75.60s WALL (  154797 calls)
     h_psi:calbec :      3.46s CPU      4.04s WALL (  154797 calls)
     vloc_psi     :     62.46s CPU     67.40s WALL (  154797 calls)
     add_vuspsi   :      4.26s CPU      3.69s WALL (  154797 calls)

     General routines
     calbec       :      8.42s CPU      8.98s WALL (  346160 calls)
     fft          :      1.92s CPU      1.98s WALL (    5233 calls)
     ffts         :      0.21s CPU      0.23s WALL (    3316 calls)
     fftw         :     64.36s CPU     68.29s WALL ( 1385284 calls)
     interpolate  :      0.29s CPU      0.31s WALL (     568 calls)
     davcio       :      0.33s CPU      1.55s WALL (   69130 calls)

     Parallel routines
     fft_scatter  :     15.60s CPU     20.14s WALL ( 1393833 calls)

     PHONON       :  2m18.59s CPU     2m56.97s WALL

     INITIALIZATION: 
     phq_setup    :      0.30s CPU      0.47s WALL (       8 calls)
     phq_init     :      7.29s CPU      7.93s WALL (       8 calls)

     phq_init     :      7.29s CPU      7.93s WALL (       8 calls)
     set_drhoc    :      1.85s CPU      1.86s WALL (      24 calls)
     init_vloc    :      0.03s CPU      0.03s WALL (       8 calls)
     init_us_1    :      0.97s CPU      0.98s WALL (       8 calls)
     newd         :      0.12s CPU      0.12s WALL (       8 calls)
     dvanqq       :      1.19s CPU      1.19s WALL (       8 calls)
     drho         :      2.66s CPU      2.75s WALL (       8 calls)

     DYNAMICAL MATRIX:
     dynmat0      :      1.75s CPU      1.91s WALL (       8 calls)
     phqscf       :    117.01s CPU    148.49s WALL (       8 calls)
     dynmatrix    :      0.02s CPU      0.30s WALL (       8 calls)

     phqscf       :    117.01s CPU    148.49s WALL (       8 calls)
     solve_linter :    116.12s CPU    145.36s WALL (      32 calls)
     drhodv       :      0.59s CPU      0.61s WALL (      32 calls)

     dynmat0      :      1.75s CPU      1.91s WALL (       8 calls)
     dynmat_us    :      0.39s CPU      0.39s WALL (       8 calls)
     d2ionq       :      0.04s CPU      0.04s WALL (       8 calls)
     dynmatcc     :      1.32s CPU      1.33s WALL (       8 calls)

     dynmat_us    :      0.39s CPU      0.39s WALL (       8 calls)
     addusdynmat  :      0.00s CPU      0.00s WALL (       8 calls)

     phqscf       :    117.01s CPU    148.49s WALL (       8 calls)
     solve_linter :    116.12s CPU    145.36s WALL (      32 calls)

     solve_linter :    116.12s CPU    145.36s WALL (      32 calls)
     dvqpsi_us    :      2.14s CPU      2.28s WALL (    2508 calls)
     ortho        :      0.96s CPU      1.09s WALL (   13486 calls)
     cgsolve      :     78.55s CPU     85.50s WALL (   13486 calls)
     incdrhoscf   :      6.33s CPU      6.90s WALL (   13486 calls)
     addusddens   :      7.20s CPU      7.26s WALL (     200 calls)
     vpsifft      :      4.54s CPU      4.96s WALL (   10858 calls)
     dv_of_drho   :      1.75s CPU      1.79s WALL (     254 calls)
     mix_pot      :      0.36s CPU     10.19s WALL (     173 calls)
     psymdvscf    :      5.90s CPU      5.99s WALL (     168 calls)
     newdq        :      7.89s CPU      7.92s WALL (     173 calls)
     adddvscf     :      0.47s CPU      0.45s WALL (   10978 calls)
     drhodvus     :      0.01s CPU      0.02s WALL (      32 calls)

     dvqpsi_us    :      2.14s CPU      2.28s WALL (    2508 calls)
     dvqpsi_us_on :      0.92s CPU      0.95s WALL (    2508 calls)

     cgsolve      :     78.55s CPU     85.50s WALL (   13486 calls)
     ch_psi       :     77.44s CPU     83.65s WALL (  143539 calls)

     ch_psi       :     77.44s CPU     83.65s WALL (  143539 calls)
     h_psi        :     70.97s CPU     76.11s WALL (  154797 calls)
     last         :      9.16s CPU      9.30s WALL (  143539 calls)

     h_psi        :     70.97s CPU     76.11s WALL (  154797 calls)
     add_vuspsi   :      4.26s CPU      3.69s WALL (  154797 calls)

     incdrhoscf   :      6.33s CPU      6.90s WALL (   13486 calls)
     addusdbec    :      0.48s CPU      0.52s WALL (   15934 calls)

     drhodvus     :      0.01s CPU      0.02s WALL (      32 calls)

      General routines
     calbec       :      8.42s CPU      8.98s WALL (  346160 calls)
     fft          :      1.92s CPU      1.98s WALL (    5233 calls)
     ffts         :      0.21s CPU      0.23s WALL (    3316 calls)
     fftw         :     64.36s CPU     68.29s WALL ( 1385284 calls)
     davcio       :      0.33s CPU      1.55s WALL (   69130 calls)
     write_rec    :      0.24s CPU     12.94s WALL (     205 calls)


     PHONON       :  2m18.59s CPU     2m56.97s WALL


   This run was terminated on:  16: 0: 7  10Nov2017            

=------------------------------------------------------------------------------=
   JOB DONE.
=------------------------------------------------------------------------------=
