
     Program PWSCF v.6.1 (svn rev. 13369) starts on 10Nov2017 at 10: 3:26 

     This program is part of the open-source Quantum ESPRESSO suite
     for quantum simulation of materials; please cite
         "P. Giannozzi et al., J. Phys.:Condens. Matter 21 395502 (2009);
          URL http://www.quantum-espresso.org", 
     in publications or presentations arising from this work. More details at
     http://www.quantum-espresso.org/quote

     Parallel version (MPI), running on     4 processors
     R & G space division:  proc/nbgrp/npool/nimage =       4
     Waiting for input...
     Reading input from standard input
     Message from routine read_cards :
     DEPRECATED: no units specified in ATOMIC_POSITIONS card
     Message from routine read_cards :
     ATOMIC_POSITIONS: units set to alat

     Current dimensions of program PWSCF are:
     Max number of different atomic species (ntypx) = 10
     Max number of k-points (npk) =  40000
     Max angular momentum in pseudopotentials (lmaxx) =  3

     Subspace diagonalization in iterative solution of the eigenvalue problem:
     a serial algorithm will be used


     Parallelization info
     --------------------
     sticks:   dense  smooth     PW     G-vecs:    dense   smooth      PW
     Min         133      66     22                 2024      722     152
     Max         134      67     23                 2025      724     153
     Sum         535     265     91                 8099     2891     609



     bravais-lattice index     =            2
     lattice parameter (alat)  =      10.3970  a.u.
     unit-cell volume          =     280.9727 (a.u.)^3
     number of atoms/cell      =            2
     number of atomic types    =            1
     number of electrons       =         8.00
     number of Kohn-Sham states=            4
     kinetic-energy cutoff     =      18.0000  Ry
     charge density cutoff     =     144.0000  Ry
     convergence threshold     =      1.0E-08
     mixing beta               =       0.7000
     number of iterations used =            8  plain     mixing
     Exchange-correlation      = SLA  PW   PBE  PBE ( 1  4  3  4 0 0)

     celldm(1)=  10.397000  celldm(2)=   0.000000  celldm(3)=   0.000000
     celldm(4)=   0.000000  celldm(5)=   0.000000  celldm(6)=   0.000000

     crystal axes: (cart. coord. in units of alat)
               a(1) = (  -0.500000   0.000000   0.500000 )  
               a(2) = (   0.000000   0.500000   0.500000 )  
               a(3) = (  -0.500000   0.500000   0.000000 )  

     reciprocal axes: (cart. coord. in units 2 pi/alat)
               b(1) = ( -1.000000 -1.000000  1.000000 )  
               b(2) = (  1.000000  1.000000  1.000000 )  
               b(3) = ( -1.000000  1.000000 -1.000000 )  


     PseudoPot. # 1 for Si read from file:
     /home/max/quantum_espresso/qe-6.1/pseudo/si_pbe_v1.uspp.F.UPF.txt
     MD5 check sum: a056efeee980c13900f22a371efd63c1
     Pseudo is Ultrasoft + core correction, Zval =  4.0
     Generated by new atomic code, or converted to UPF format
     Using radial grid of  899 points,  6 beta functions with: 
                l(1) =   0
                l(2) =   0
                l(3) =   1
                l(4) =   1
                l(5) =   2
                l(6) =   2
     Q(r) pseudized with  8 coefficients,  rinner =    0.900   0.900   0.900
                                                       0.900   0.900

     atomic species   valence    mass     pseudopotential
        Si             4.00    28.08600     Si( 1.00)

     24 Sym. Ops. (no inversion) found
          (note: 24 additional sym.ops. were found but ignored
           their fractional translations are incommensurate with FFT grid)


   Cartesian axes

     site n.     atom                  positions (alat units)
         1           Si  tau(   1) = (   0.0000000   0.0000000   0.0000000  )
         2           Si  tau(   2) = (   0.2500000   0.2500000   0.2500000  )

     number of k points=    60
                       cart. coord. in units 2pi/alat
        k(    1) = (  -0.0625000   0.0625000   0.0625000), wk =   0.0078125
        k(    2) = (  -0.1875000   0.1875000  -0.0625000), wk =   0.0234375
        k(    3) = (  -0.3125000   0.3125000  -0.1875000), wk =   0.0234375
        k(    4) = (  -0.4375000   0.4375000  -0.3125000), wk =   0.0234375
        k(    5) = (   0.4375000  -0.4375000   0.5625000), wk =   0.0234375
        k(    6) = (   0.3125000  -0.3125000   0.4375000), wk =   0.0234375
        k(    7) = (   0.1875000  -0.1875000   0.3125000), wk =   0.0234375
        k(    8) = (   0.0625000  -0.0625000   0.1875000), wk =   0.0234375
        k(    9) = (  -0.0625000   0.3125000   0.0625000), wk =   0.0234375
        k(   10) = (  -0.1875000   0.4375000  -0.0625000), wk =   0.0468750
        k(   11) = (  -0.3125000   0.5625000  -0.1875000), wk =   0.0468750
        k(   12) = (   0.5625000  -0.3125000   0.6875000), wk =   0.0468750
        k(   13) = (   0.4375000  -0.1875000   0.5625000), wk =   0.0468750
        k(   14) = (   0.3125000  -0.0625000   0.4375000), wk =   0.0468750
        k(   15) = (   0.1875000   0.0625000   0.3125000), wk =   0.0468750
        k(   16) = (  -0.0625000   0.5625000   0.0625000), wk =   0.0234375
        k(   17) = (  -0.1875000   0.6875000  -0.0625000), wk =   0.0468750
        k(   18) = (   0.6875000  -0.1875000   0.8125000), wk =   0.0468750
        k(   19) = (   0.5625000  -0.0625000   0.6875000), wk =   0.0468750
        k(   20) = (   0.4375000   0.0625000   0.5625000), wk =   0.0468750
        k(   21) = (   0.3125000   0.1875000   0.4375000), wk =   0.0468750
        k(   22) = (  -0.0625000   0.8125000   0.0625000), wk =   0.0234375
        k(   23) = (   0.8125000  -0.0625000   0.9375000), wk =   0.0468750
        k(   24) = (   0.6875000   0.0625000   0.8125000), wk =   0.0468750
        k(   25) = (   0.5625000   0.1875000   0.6875000), wk =   0.0468750
        k(   26) = (   0.4375000   0.3125000   0.5625000), wk =   0.0468750
        k(   27) = (  -0.0625000  -0.9375000   0.0625000), wk =   0.0234375
        k(   28) = (  -0.1875000  -0.8125000  -0.0625000), wk =   0.0468750
        k(   29) = (  -0.3125000  -0.6875000  -0.1875000), wk =   0.0468750
        k(   30) = (  -0.0625000  -0.6875000   0.0625000), wk =   0.0234375
        k(   31) = (  -0.1875000  -0.5625000  -0.0625000), wk =   0.0468750
        k(   32) = (  -0.0625000  -0.4375000   0.0625000), wk =   0.0234375
        k(   33) = (  -0.1875000   0.1875000   0.1875000), wk =   0.0078125
        k(   34) = (  -0.3125000   0.3125000   0.0625000), wk =   0.0234375
        k(   35) = (  -0.4375000   0.4375000  -0.0625000), wk =   0.0234375
        k(   36) = (   0.4375000  -0.4375000   0.8125000), wk =   0.0234375
        k(   37) = (   0.3125000  -0.3125000   0.6875000), wk =   0.0234375
        k(   38) = (   0.1875000  -0.1875000   0.5625000), wk =   0.0234375
        k(   39) = (  -0.1875000   0.4375000   0.1875000), wk =   0.0234375
        k(   40) = (  -0.3125000   0.5625000   0.0625000), wk =   0.0468750
        k(   41) = (   0.5625000  -0.3125000   0.9375000), wk =   0.0468750
        k(   42) = (   0.4375000  -0.1875000   0.8125000), wk =   0.0468750
        k(   43) = (   0.3125000  -0.0625000   0.6875000), wk =   0.0468750
        k(   44) = (  -0.1875000   0.6875000   0.1875000), wk =   0.0234375
        k(   45) = (   0.6875000  -0.1875000   1.0625000), wk =   0.0468750
        k(   46) = (   0.5625000  -0.0625000   0.9375000), wk =   0.0468750
        k(   47) = (   0.4375000   0.0625000   0.8125000), wk =   0.0468750
        k(   48) = (  -0.1875000  -1.0625000   0.1875000), wk =   0.0234375
        k(   49) = (  -0.3125000  -0.9375000   0.0625000), wk =   0.0468750
        k(   50) = (  -0.1875000  -0.8125000   0.1875000), wk =   0.0234375
        k(   51) = (  -0.3125000   0.3125000   0.3125000), wk =   0.0078125
        k(   52) = (  -0.4375000   0.4375000   0.1875000), wk =   0.0234375
        k(   53) = (   0.4375000  -0.4375000   1.0625000), wk =   0.0234375
        k(   54) = (   0.3125000  -0.3125000   0.9375000), wk =   0.0234375
        k(   55) = (  -0.3125000   0.5625000   0.3125000), wk =   0.0234375
        k(   56) = (   0.5625000  -0.3125000   1.1875000), wk =   0.0468750
        k(   57) = (   0.4375000  -0.1875000   1.0625000), wk =   0.0468750
        k(   58) = (  -0.3125000  -1.1875000   0.3125000), wk =   0.0234375
        k(   59) = (  -0.4375000   0.4375000   0.4375000), wk =   0.0078125
        k(   60) = (   0.4375000  -0.4375000   1.3125000), wk =   0.0234375

     Dense  grid:     8099 G-vectors     FFT dimensions: (  30,  30,  30)

     Smooth grid:     2891 G-vectors     FFT dimensions: (  20,  20,  20)

     Estimated max dynamical RAM per process >       1.73MB

     Estimated total allocated dynamical RAM >       6.94MB

     Initial potential from superposition of free atoms

     starting charge    7.99866, renormalised to    8.00000
     Starting wfc are    8 randomized atomic wfcs

     total cpu time spent up to now is        0.4 secs

     per-process dynamical memory:     8.6 Mb

     Self-consistent Calculation

     iteration #  1     ecut=    18.00 Ry     beta=0.70
     Davidson diagonalization with overlap
     ethr =  1.00E-02,  avg # of iterations =  2.0

     Threshold (ethr) on eigenvalues was too large:
     Diagonalizing with lowered threshold

     Davidson diagonalization with overlap
     ethr =  6.54E-04,  avg # of iterations =  1.1

     total cpu time spent up to now is        0.7 secs

     total energy              =     -19.18915184 Ry
     Harris-Foulkes estimate   =     -19.20082283 Ry
     estimated scf accuracy    <       0.05216685 Ry

     iteration #  2     ecut=    18.00 Ry     beta=0.70
     Davidson diagonalization with overlap
     ethr =  6.52E-04,  avg # of iterations =  1.0

     total cpu time spent up to now is        0.9 secs

     total energy              =     -19.19074656 Ry
     Harris-Foulkes estimate   =     -19.19091629 Ry
     estimated scf accuracy    <       0.00245009 Ry

     iteration #  3     ecut=    18.00 Ry     beta=0.70
     Davidson diagonalization with overlap
     ethr =  3.06E-05,  avg # of iterations =  1.9

     total cpu time spent up to now is        1.0 secs

     total energy              =     -19.19100916 Ry
     Harris-Foulkes estimate   =     -19.19102105 Ry
     estimated scf accuracy    <       0.00003862 Ry

     iteration #  4     ecut=    18.00 Ry     beta=0.70
     Davidson diagonalization with overlap
     ethr =  4.83E-07,  avg # of iterations =  2.8

     total cpu time spent up to now is        1.3 secs

     total energy              =     -19.19103192 Ry
     Harris-Foulkes estimate   =     -19.19103234 Ry
     estimated scf accuracy    <       0.00000187 Ry

     iteration #  5     ecut=    18.00 Ry     beta=0.70
     Davidson diagonalization with overlap
     ethr =  2.34E-08,  avg # of iterations =  2.2

     total cpu time spent up to now is        1.4 secs

     total energy              =     -19.19103234 Ry
     Harris-Foulkes estimate   =     -19.19103236 Ry
     estimated scf accuracy    <       0.00000005 Ry

     iteration #  6     ecut=    18.00 Ry     beta=0.70
     Davidson diagonalization with overlap
     ethr =  5.70E-10,  avg # of iterations =  2.7

     total cpu time spent up to now is        1.7 secs

     End of self-consistent calculation

          k =-0.0625 0.0625 0.0625 (   338 PWs)   bands (ev):

    -5.8500   5.2613   5.7132   5.7132

          k =-0.1875 0.1875-0.0625 (   353 PWs)   bands (ev):

    -5.5886   3.7667   4.9263   5.5955

          k =-0.3125 0.3125-0.1875 (   356 PWs)   bands (ev):

    -4.9567   1.5833   4.4447   5.1424

          k =-0.4375 0.4375-0.3125 (   360 PWs)   bands (ev):

    -4.0788  -0.2603   4.2294   4.7435

          k = 0.4375-0.4375 0.5625 (   360 PWs)   bands (ev):

    -3.6456  -0.9409   4.2761   4.5310

          k = 0.3125-0.3125 0.4375 (   357 PWs)   bands (ev):

    -4.3788   0.2840   4.5530   4.5564

          k = 0.1875-0.1875 0.3125 (   357 PWs)   bands (ev):

    -5.2044   2.2983   4.8257   5.0122

          k = 0.0625-0.0625 0.1875 (   344 PWs)   bands (ev):

    -5.7185   4.5102   5.2984   5.4480

          k =-0.0625 0.3125 0.0625 (   354 PWs)   bands (ev):

    -5.4564   3.6150   4.7535   4.8287

          k =-0.1875 0.4375-0.0625 (   357 PWs)   bands (ev):

    -4.9441   2.1379   3.8047   4.5758

          k =-0.3125 0.5625-0.1875 (   361 PWs)   bands (ev):

    -4.1206   0.3252   3.3118   4.1772

          k = 0.5625-0.3125 0.6875 (   368 PWs)   bands (ev):

    -3.3828  -0.8506   3.0260   4.0870

          k = 0.4375-0.1875 0.5625 (   363 PWs)   bands (ev):

    -3.8256  -0.1806   2.9585   4.3638

          k = 0.3125-0.0625 0.4375 (   359 PWs)   bands (ev):

    -4.7024   1.5030   3.2623   4.8583

          k = 0.1875 0.0625 0.3125 (   359 PWs)   bands (ev):

    -5.3295   2.9572   4.3623   5.2223

          k =-0.0625 0.5625 0.0625 (   355 PWs)   bands (ev):

    -4.5523   1.6287   3.6660   3.7845

          k =-0.1875 0.6875-0.0625 (   359 PWs)   bands (ev):

    -3.8181   0.4160   2.8997   3.4467

          k = 0.6875-0.1875 0.8125 (   365 PWs)   bands (ev):

    -2.9450  -0.7504   2.0801   3.4157

          k = 0.5625-0.0625 0.6875 (   367 PWs)   bands (ev):

    -3.0159  -0.6581   1.7384   3.7509

          k = 0.4375 0.0625 0.5625 (   365 PWs)   bands (ev):

    -3.8886   0.2802   2.3242   4.3210

          k = 0.3125 0.1875 0.4375 (   358 PWs)   bands (ev):

    -4.5922   0.9209   3.9112   4.7606

          k =-0.0625 0.8125 0.0625 (   362 PWs)   bands (ev):

    -3.1785  -0.4313   2.9937   3.2032

          k = 0.8125-0.0625 0.9375 (   363 PWs)   bands (ev):

    -2.2908  -1.4001   2.4536   2.9678

          k = 0.6875 0.0625 0.8125 (   369 PWs)   bands (ev):

    -2.3913  -1.2349   1.7460   3.2753

          k = 0.5625 0.1875 0.6875 (   365 PWs)   bands (ev):

    -3.1318  -0.8158   2.2709   3.8617

          k = 0.4375 0.3125 0.5625 (   365 PWs)   bands (ev):

    -3.7259  -0.6555   3.7354   4.4336

          k =-0.0625-0.9375 0.0625 (   362 PWs)   bands (ev):

    -2.3397  -1.4160   2.8589   3.0844

          k =-0.1875-0.8125-0.0625 (   359 PWs)   bands (ev):

    -3.0958  -0.4937   2.6064   3.1241

          k =-0.3125-0.6875-0.1875 (   364 PWs)   bands (ev):

    -3.5592  -0.2214   2.6572   3.7087

          k =-0.0625-0.6875 0.0625 (   358 PWs)   bands (ev):

    -3.9204   0.5937   3.2631   3.4384

          k =-0.1875-0.5625-0.0625 (   356 PWs)   bands (ev):

    -4.4379   1.2961   3.3082   3.9426

          k =-0.0625-0.4375 0.0625 (   351 PWs)   bands (ev):

    -5.0662   2.6461   4.1971   4.2307

          k =-0.1875 0.1875 0.1875 (   359 PWs)   bands (ev):

    -5.4600   3.0573   5.2808   5.2808

          k =-0.3125 0.3125 0.0625 (   360 PWs)   bands (ev):

    -5.0768   2.2220   3.8028   5.2955

          k =-0.4375 0.4375-0.0625 (   362 PWs)   bands (ev):

    -4.3472   0.8736   2.7462   4.8020

          k = 0.4375-0.4375 0.8125 (   367 PWs)   bands (ev):

    -3.4769  -0.5765   2.5892   4.2834

          k = 0.3125-0.3125 0.6875 (   365 PWs)   bands (ev):

    -3.4616  -0.6043   2.8796   3.9736

          k = 0.1875-0.1875 0.5625 (   358 PWs)   bands (ev):

    -4.3299   0.8705   3.4810   3.9515

          k =-0.1875 0.4375 0.1875 (   362 PWs)   bands (ev):

    -4.8259   1.5709   4.2868   4.3611

          k =-0.3125 0.5625 0.0625 (   360 PWs)   bands (ev):

    -4.2135   0.8035   2.8018   4.1688

          k = 0.5625-0.3125 0.9375 (   364 PWs)   bands (ev):

    -3.3444  -0.2808   2.0324   3.6166

          k = 0.4375-0.1875 0.8125 (   369 PWs)   bands (ev):

    -2.8707  -0.8778   2.0319   3.3124

          k = 0.3125-0.0625 0.6875 (   362 PWs)   bands (ev):

    -3.6212   0.1005   2.4477   3.4867

          k =-0.1875 0.6875 0.1875 (   360 PWs)   bands (ev):

    -3.7275   0.1596   2.7718   3.6275

          k = 0.6875-0.1875 1.0625 (   363 PWs)   bands (ev):

    -2.9426  -0.6308   2.2120   2.9641

          k = 0.5625-0.0625 0.9375 (   370 PWs)   bands (ev):

    -2.1556  -1.3732   1.9046   2.4765

          k = 0.4375 0.0625 0.8125 (   367 PWs)   bands (ev):

    -2.7442  -0.8327   1.8942   2.9398

          k =-0.1875-1.0625 0.1875 (   364 PWs)   bands (ev):

    -2.3134  -1.3496   2.0059   3.2920

          k =-0.3125-0.9375 0.0625 (   366 PWs)   bands (ev):

    -2.2151  -1.3815   2.0975   2.6841

          k =-0.1875-0.8125 0.1875 (   362 PWs)   bands (ev):

    -3.0372  -0.5920   2.2637   3.4050

          k =-0.3125 0.3125 0.3125 (   359 PWs)   bands (ev):

    -4.7213   0.8955   4.8741   4.8741

          k =-0.4375 0.4375 0.1875 (   360 PWs)   bands (ev):

    -4.2530   0.3245   3.4372   4.7873

          k = 0.4375-0.4375 1.0625 (   367 PWs)   bands (ev):

    -3.4799  -0.2137   1.9538   4.2210

          k = 0.3125-0.3125 0.9375 (   364 PWs)   bands (ev):

    -2.6791  -0.9844   1.6278   3.6872

          k =-0.3125 0.5625 0.3125 (   368 PWs)   bands (ev):

    -3.9476  -0.2209   3.7608   4.2382

          k = 0.5625-0.3125 1.1875 (   367 PWs)   bands (ev):

    -3.3427  -0.5824   2.4861   3.7769

          k = 0.4375-0.1875 1.0625 (   370 PWs)   bands (ev):

    -2.5439  -1.0524   1.7177   3.0821

          k =-0.3125-1.1875 0.3125 (   363 PWs)   bands (ev):

    -2.9930  -0.8595   2.1071   3.7849

          k =-0.4375 0.4375 0.4375 (   356 PWs)   bands (ev):

    -3.8562  -0.7111   4.6564   4.6564

          k = 0.4375-0.4375 1.3125 (   365 PWs)   bands (ev):

    -3.5148  -0.8865   3.4520   4.3952

     highest occupied level (ev):     5.7132

!    total energy              =     -19.19103236 Ry
     Harris-Foulkes estimate   =     -19.19103237 Ry
     estimated scf accuracy    <          6.6E-09 Ry

     The total energy is the sum of the following terms:

     one-electron contribution =       4.81298368 Ry
     hartree contribution      =       1.14954431 Ry
     xc contribution           =      -8.57401454 Ry
     ewald contribution        =     -16.57954581 Ry

     convergence has been achieved in   6 iterations

     Writing output data file silicon.10.397.save

     init_run     :      0.25s CPU      0.28s WALL (       1 calls)
     electrons    :      1.09s CPU      1.31s WALL (       1 calls)

     Called by init_run:
     wfcinit      :      0.07s CPU      0.08s WALL (       1 calls)
     potinit      :      0.01s CPU      0.02s WALL (       1 calls)

     Called by electrons:
     c_bands      :      0.75s CPU      0.91s WALL (       7 calls)
     sum_band     :      0.20s CPU      0.23s WALL (       7 calls)
     v_of_rho     :      0.06s CPU      0.07s WALL (       7 calls)
     newd         :      0.08s CPU      0.08s WALL (       7 calls)
     mix_rho      :      0.00s CPU      0.00s WALL (       7 calls)

     Called by c_bands:
     init_us_2    :      0.05s CPU      0.06s WALL (     900 calls)
     cegterg      :      0.62s CPU      0.76s WALL (     420 calls)

     Called by sum_band:
     sum_band:bec :      0.00s CPU      0.01s WALL (     420 calls)
     addusdens    :      0.08s CPU      0.08s WALL (       7 calls)

     Called by *egterg:
     h_psi        :      0.46s CPU      0.56s WALL (    1298 calls)
     s_psi        :      0.05s CPU      0.06s WALL (    1298 calls)
     g_psi        :      0.00s CPU      0.00s WALL (     818 calls)
     cdiaghg      :      0.07s CPU      0.08s WALL (    1178 calls)

     Called by h_psi:
     h_psi:pot    :      0.46s CPU      0.55s WALL (    1298 calls)
     h_psi:calbec :      0.07s CPU      0.09s WALL (    1298 calls)
     vloc_psi     :      0.33s CPU      0.40s WALL (    1298 calls)
     add_vuspsi   :      0.06s CPU      0.06s WALL (    1298 calls)

     General routines
     calbec       :      0.10s CPU      0.11s WALL (    1718 calls)
     fft          :      0.05s CPU      0.07s WALL (     112 calls)
     ffts         :      0.00s CPU      0.00s WALL (      14 calls)
     fftw         :      0.31s CPU      0.38s WALL (   11622 calls)
     interpolate  :      0.01s CPU      0.01s WALL (      14 calls)
     davcio       :      0.00s CPU      0.00s WALL (      60 calls)

     Parallel routines
     fft_scatter  :      0.17s CPU      0.22s WALL (   11748 calls)

     PWSCF        :     1.63s CPU         2.05s WALL


   This run was terminated on:  10: 3:28  10Nov2017            

=------------------------------------------------------------------------------=
   JOB DONE.
=------------------------------------------------------------------------------=
