
     Program PWSCF v.6.1 (svn rev. 13369) starts on 10Nov2017 at 10:31:49 

     This program is part of the open-source Quantum ESPRESSO suite
     for quantum simulation of materials; please cite
         "P. Giannozzi et al., J. Phys.:Condens. Matter 21 395502 (2009);
          URL http://www.quantum-espresso.org", 
     in publications or presentations arising from this work. More details at
     http://www.quantum-espresso.org/quote

     Parallel version (MPI), running on     4 processors
     R & G space division:  proc/nbgrp/npool/nimage =       4
     Waiting for input...
     Reading input from standard input
     Message from routine read_cards :
     DEPRECATED: no units specified in ATOMIC_POSITIONS card
     Message from routine read_cards :
     ATOMIC_POSITIONS: units set to alat

     Current dimensions of program PWSCF are:
     Max number of different atomic species (ntypx) = 10
     Max number of k-points (npk) =  40000
     Max angular momentum in pseudopotentials (lmaxx) =  3

     Subspace diagonalization in iterative solution of the eigenvalue problem:
     a serial algorithm will be used


     Parallelization info
     --------------------
     sticks:   dense  smooth     PW     G-vecs:    dense   smooth      PW
     Min         218     109     37                 4315     1545     309
     Max         220     110     38                 4316     1546     312
     Sum         877     439    151                17261     6183    1243



     bravais-lattice index     =            2
     lattice parameter (alat)  =      10.3480  a.u.
     unit-cell volume          =     277.0188 (a.u.)^3
     number of atoms/cell      =            2
     number of atomic types    =            1
     number of electrons       =         8.00
     number of Kohn-Sham states=            4
     kinetic-energy cutoff     =      30.0000  Ry
     charge density cutoff     =     240.0000  Ry
     convergence threshold     =      1.0E-08
     mixing beta               =       0.7000
     number of iterations used =            8  plain     mixing
     Exchange-correlation      = SLA  PW   PBE  PBE ( 1  4  3  4 0 0)

     celldm(1)=  10.348000  celldm(2)=   0.000000  celldm(3)=   0.000000
     celldm(4)=   0.000000  celldm(5)=   0.000000  celldm(6)=   0.000000

     crystal axes: (cart. coord. in units of alat)
               a(1) = (  -0.500000   0.000000   0.500000 )  
               a(2) = (   0.000000   0.500000   0.500000 )  
               a(3) = (  -0.500000   0.500000   0.000000 )  

     reciprocal axes: (cart. coord. in units 2 pi/alat)
               b(1) = ( -1.000000 -1.000000  1.000000 )  
               b(2) = (  1.000000  1.000000  1.000000 )  
               b(3) = ( -1.000000  1.000000 -1.000000 )  


     PseudoPot. # 1 for Si read from file:
     /home/max/quantum_espresso/qe-6.1/pseudo/si_pbe_v1.uspp.F.UPF.txt
     MD5 check sum: a056efeee980c13900f22a371efd63c1
     Pseudo is Ultrasoft + core correction, Zval =  4.0
     Generated by new atomic code, or converted to UPF format
     Using radial grid of  899 points,  6 beta functions with: 
                l(1) =   0
                l(2) =   0
                l(3) =   1
                l(4) =   1
                l(5) =   2
                l(6) =   2
     Q(r) pseudized with  8 coefficients,  rinner =    0.900   0.900   0.900
                                                       0.900   0.900

     atomic species   valence    mass     pseudopotential
        Si             4.00    28.08600     Si( 1.00)

     48 Sym. Ops., with inversion, found (24 have fractional translation)



   Cartesian axes

     site n.     atom                  positions (alat units)
         1           Si  tau(   1) = (   0.0000000   0.0000000   0.0000000  )
         2           Si  tau(   2) = (   0.2500000   0.2500000   0.2500000  )

     number of k points=    28
                       cart. coord. in units 2pi/alat
        k(    1) = (  -0.0833333   0.0833333   0.0833333), wk =   0.0185185
        k(    2) = (  -0.2500000   0.2500000  -0.0833333), wk =   0.0555556
        k(    3) = (  -0.4166667   0.4166667  -0.2500000), wk =   0.0555556
        k(    4) = (   0.4166667  -0.4166667   0.5833333), wk =   0.0555556
        k(    5) = (   0.2500000  -0.2500000   0.4166667), wk =   0.0555556
        k(    6) = (   0.0833333  -0.0833333   0.2500000), wk =   0.0555556
        k(    7) = (  -0.0833333   0.4166667   0.0833333), wk =   0.0555556
        k(    8) = (  -0.2500000   0.5833333  -0.0833333), wk =   0.1111111
        k(    9) = (   0.5833333  -0.2500000   0.7500000), wk =   0.1111111
        k(   10) = (   0.4166667  -0.0833333   0.5833333), wk =   0.1111111
        k(   11) = (   0.2500000   0.0833333   0.4166667), wk =   0.1111111
        k(   12) = (  -0.0833333   0.7500000   0.0833333), wk =   0.0555556
        k(   13) = (   0.7500000  -0.0833333   0.9166667), wk =   0.1111111
        k(   14) = (   0.5833333   0.0833333   0.7500000), wk =   0.1111111
        k(   15) = (   0.4166667   0.2500000   0.5833333), wk =   0.1111111
        k(   16) = (  -0.0833333  -0.9166667   0.0833333), wk =   0.0555556
        k(   17) = (  -0.2500000  -0.7500000  -0.0833333), wk =   0.1111111
        k(   18) = (  -0.0833333  -0.5833333   0.0833333), wk =   0.0555556
        k(   19) = (  -0.2500000   0.2500000   0.2500000), wk =   0.0185185
        k(   20) = (  -0.4166667   0.4166667   0.0833333), wk =   0.0555556
        k(   21) = (   0.4166667  -0.4166667   0.9166667), wk =   0.0555556
        k(   22) = (   0.2500000  -0.2500000   0.7500000), wk =   0.0555556
        k(   23) = (  -0.2500000   0.5833333   0.2500000), wk =   0.0555556
        k(   24) = (   0.5833333  -0.2500000   1.0833333), wk =   0.1111111
        k(   25) = (   0.4166667  -0.0833333   0.9166667), wk =   0.1111111
        k(   26) = (  -0.2500000  -1.0833333   0.2500000), wk =   0.0555556
        k(   27) = (  -0.4166667   0.4166667   0.4166667), wk =   0.0185185
        k(   28) = (   0.4166667  -0.4166667   1.2500000), wk =   0.0555556

     Dense  grid:    17261 G-vectors     FFT dimensions: (  40,  40,  40)

     Smooth grid:     6183 G-vectors     FFT dimensions: (  25,  25,  25)

     Estimated max dynamical RAM per process >       3.35MB

     Estimated total allocated dynamical RAM >      13.42MB

     Initial potential from superposition of free atoms

     starting charge    7.99866, renormalised to    8.00000
     Starting wfc are    8 randomized atomic wfcs

     total cpu time spent up to now is        0.8 secs

     per-process dynamical memory:     9.8 Mb

     Self-consistent Calculation

     iteration #  1     ecut=    30.00 Ry     beta=0.70
     Davidson diagonalization with overlap
     ethr =  1.00E-02,  avg # of iterations =  2.0

     Threshold (ethr) on eigenvalues was too large:
     Diagonalizing with lowered threshold

     Davidson diagonalization with overlap
     ethr =  6.71E-04,  avg # of iterations =  1.0

     total cpu time spent up to now is        1.2 secs

     total energy              =     -19.19122800 Ry
     Harris-Foulkes estimate   =     -19.20351142 Ry
     estimated scf accuracy    <       0.05328492 Ry

     iteration #  2     ecut=    30.00 Ry     beta=0.70
     Davidson diagonalization with overlap
     ethr =  6.66E-04,  avg # of iterations =  1.0

     total cpu time spent up to now is        1.5 secs

     total energy              =     -19.19297547 Ry
     Harris-Foulkes estimate   =     -19.19314360 Ry
     estimated scf accuracy    <       0.00244893 Ry

     iteration #  3     ecut=    30.00 Ry     beta=0.70
     Davidson diagonalization with overlap
     ethr =  3.06E-05,  avg # of iterations =  2.1

     total cpu time spent up to now is        1.8 secs

     total energy              =     -19.19331682 Ry
     Harris-Foulkes estimate   =     -19.19332890 Ry
     estimated scf accuracy    <       0.00004026 Ry

     iteration #  4     ecut=    30.00 Ry     beta=0.70
     Davidson diagonalization with overlap
     ethr =  5.03E-07,  avg # of iterations =  3.4

     total cpu time spent up to now is        2.1 secs

     total energy              =     -19.19335348 Ry
     Harris-Foulkes estimate   =     -19.19335415 Ry
     estimated scf accuracy    <       0.00000267 Ry

     iteration #  5     ecut=    30.00 Ry     beta=0.70
     Davidson diagonalization with overlap
     ethr =  3.33E-08,  avg # of iterations =  2.0

     total cpu time spent up to now is        2.8 secs

     End of self-consistent calculation

          k =-0.0833 0.0833 0.0833 (   752 PWs)   bands (ev):

    -5.7645   5.0768   5.7957   5.7957

          k =-0.2500 0.2500-0.0833 (   774 PWs)   bands (ev):

    -5.2968   3.0140   4.5838   5.5866

          k =-0.4167 0.4167-0.2500 (   769 PWs)   bands (ev):

    -4.2271   0.2994   4.1213   4.9605

          k = 0.4167-0.4167 0.5833 (   771 PWs)   bands (ev):

    -3.5478  -0.8189   4.1830   4.5878

          k = 0.2500-0.2500 0.4167 (   774 PWs)   bands (ev):

    -4.6298   1.1303   4.6493   4.6735

          k = 0.0833-0.0833 0.2500 (   781 PWs)   bands (ev):

    -5.5283   4.0112   5.1638   5.3395

          k =-0.0833 0.4167 0.0833 (   775 PWs)   bands (ev):

    -5.0599   2.8144   4.4273   4.4475

          k =-0.2500 0.5833-0.0833 (   773 PWs)   bands (ev):

    -4.1673   1.0003   3.1376   4.0663

          k = 0.5833-0.2500 0.7500 (   765 PWs)   bands (ev):

    -3.0786  -0.7087   2.5409   3.8452

          k = 0.4167-0.0833 0.5833 (   771 PWs)   bands (ev):

    -3.7818   0.3228   2.5070   4.3201

          k = 0.2500 0.0833 0.4167 (   775 PWs)   bands (ev):

    -4.8390   1.9977   3.8208   4.9721

          k =-0.0833 0.7500 0.0833 (   773 PWs)   bands (ev):

    -3.4683   0.1757   3.1055   3.4360

          k = 0.7500-0.0833 0.9167 (   760 PWs)   bands (ev):

    -2.2973  -1.1423   2.2848   3.0405

          k = 0.5833 0.0833 0.7500 (   763 PWs)   bands (ev):

    -2.6661  -0.8035   1.8096   3.5748

          k = 0.4167 0.2500 0.5833 (   772 PWs)   bands (ev):

    -3.6743  -0.3346   3.4205   4.4150

          k =-0.0833-0.9167 0.0833 (   765 PWs)   bands (ev):

    -2.3849  -1.1491   2.8413   3.2241

          k =-0.2500-0.7500-0.0833 (   767 PWs)   bands (ev):

    -3.3043  -0.0420   2.5962   3.3747

          k =-0.0833-0.5833 0.0833 (   775 PWs)   bands (ev):

    -4.3682   1.5227   3.6381   3.8513

          k =-0.2500 0.2500 0.2500 (   778 PWs)   bands (ev):

    -5.0717   2.0546   5.1920   5.1920

          k =-0.4167 0.4167 0.0833 (   779 PWs)   bands (ev):

    -4.4060   1.1229   3.1017   5.0241

          k = 0.4167-0.4167 0.9167 (   769 PWs)   bands (ev):

    -3.2529  -0.3014   2.0193   4.2542

          k = 0.2500-0.2500 0.7500 (   768 PWs)   bands (ev):

    -3.2006  -0.3798   2.4852   3.7822

          k =-0.2500 0.5833 0.2500 (   775 PWs)   bands (ev):

    -3.9909   0.3319   3.5481   4.1486

          k = 0.5833-0.2500 1.0833 (   763 PWs)   bands (ev):

    -3.0098  -0.4203   2.1187   3.3745

          k = 0.4167-0.0833 0.9167 (   759 PWs)   bands (ev):

    -2.1960  -1.1500   1.9634   2.7226

          k =-0.2500-1.0833 0.2500 (   762 PWs)   bands (ev):

    -2.4032  -1.0521   1.8395   3.5912

          k =-0.4167 0.4167 0.4167 (   769 PWs)   bands (ev):

    -3.9069  -0.4267   4.8081   4.8081

          k = 0.4167-0.4167 1.2500 (   768 PWs)   bands (ev):

    -3.3162  -0.7296   3.0039   4.3781

     highest occupied level (ev):     5.7957

!    total energy              =     -19.19335385 Ry
     Harris-Foulkes estimate   =     -19.19335384 Ry
     estimated scf accuracy    <          9.5E-09 Ry

     The total energy is the sum of the following terms:

     one-electron contribution =       4.91885078 Ry
     hartree contribution      =       1.13756951 Ry
     xc contribution           =      -8.59172066 Ry
     ewald contribution        =     -16.65805348 Ry

     convergence has been achieved in   5 iterations

     Writing output data file silicon.10.348.save

     init_run     :      0.38s CPU      0.72s WALL (       1 calls)
     electrons    :      1.37s CPU      2.05s WALL (       1 calls)

     Called by init_run:
     wfcinit      :      0.08s CPU      0.13s WALL (       1 calls)
     potinit      :      0.02s CPU      0.06s WALL (       1 calls)

     Called by electrons:
     c_bands      :      0.85s CPU      1.40s WALL (       6 calls)
     sum_band     :      0.30s CPU      0.38s WALL (       6 calls)
     v_of_rho     :      0.12s CPU      0.16s WALL (       6 calls)
     newd         :      0.11s CPU      0.17s WALL (       6 calls)
     mix_rho      :      0.01s CPU      0.01s WALL (       6 calls)

     Called by c_bands:
     init_us_2    :      0.05s CPU      0.06s WALL (     364 calls)
     cegterg      :      0.73s CPU      1.26s WALL (     168 calls)

     Called by sum_band:
     sum_band:bec :      0.00s CPU      0.00s WALL (     168 calls)
     addusdens    :      0.14s CPU      0.16s WALL (       6 calls)

     Called by *egterg:
     h_psi        :      0.62s CPU      1.06s WALL (     520 calls)
     s_psi        :      0.04s CPU      0.06s WALL (     520 calls)
     g_psi        :      0.00s CPU      0.00s WALL (     324 calls)
     cdiaghg      :      0.05s CPU      0.06s WALL (     464 calls)

     Called by h_psi:
     h_psi:pot    :      0.62s CPU      1.06s WALL (     520 calls)
     h_psi:calbec :      0.07s CPU      0.11s WALL (     520 calls)
     vloc_psi     :      0.51s CPU      0.89s WALL (     520 calls)
     add_vuspsi   :      0.04s CPU      0.05s WALL (     520 calls)

     General routines
     calbec       :      0.08s CPU      0.14s WALL (     688 calls)
     fft          :      0.09s CPU      0.16s WALL (      96 calls)
     ffts         :      0.00s CPU      0.00s WALL (      12 calls)
     fftw         :      0.51s CPU      0.90s WALL (    4618 calls)
     interpolate  :      0.01s CPU      0.02s WALL (      12 calls)
     davcio       :      0.00s CPU      0.00s WALL (      28 calls)

     Parallel routines
     fft_scatter  :      0.30s CPU      0.71s WALL (    4726 calls)

     PWSCF        :     1.96s CPU         3.00s WALL


   This run was terminated on:  10:31:52  10Nov2017            

=------------------------------------------------------------------------------=
   JOB DONE.
=------------------------------------------------------------------------------=
