
     Program PWSCF v.6.1 (svn rev. 13369) starts on 10Nov2017 at 10:28:45 

     This program is part of the open-source Quantum ESPRESSO suite
     for quantum simulation of materials; please cite
         "P. Giannozzi et al., J. Phys.:Condens. Matter 21 395502 (2009);
          URL http://www.quantum-espresso.org", 
     in publications or presentations arising from this work. More details at
     http://www.quantum-espresso.org/quote

     Parallel version (MPI), running on     4 processors
     R & G space division:  proc/nbgrp/npool/nimage =       4
     Waiting for input...
     Reading input from standard input
     Message from routine read_cards :
     DEPRECATED: no units specified in ATOMIC_POSITIONS card
     Message from routine read_cards :
     ATOMIC_POSITIONS: units set to alat

     Current dimensions of program PWSCF are:
     Max number of different atomic species (ntypx) = 10
     Max number of k-points (npk) =  40000
     Max angular momentum in pseudopotentials (lmaxx) =  3

     Subspace diagonalization in iterative solution of the eigenvalue problem:
     a serial algorithm will be used


     Parallelization info
     --------------------
     sticks:   dense  smooth     PW     G-vecs:    dense   smooth      PW
     Min         214     108     37                 4221     1495     284
     Max         215     109     38                 4224     1498     285
     Sum         859     433    151                16889     5985    1139



     bravais-lattice index     =            2
     lattice parameter (alat)  =      10.2800  a.u.
     unit-cell volume          =     271.5935 (a.u.)^3
     number of atoms/cell      =            2
     number of atomic types    =            1
     number of electrons       =         8.00
     number of Kohn-Sham states=            4
     kinetic-energy cutoff     =      30.0000  Ry
     charge density cutoff     =     240.0000  Ry
     convergence threshold     =      1.0E-08
     mixing beta               =       0.7000
     number of iterations used =            8  plain     mixing
     Exchange-correlation      = SLA  PW   PBE  PBE ( 1  4  3  4 0 0)

     celldm(1)=  10.280000  celldm(2)=   0.000000  celldm(3)=   0.000000
     celldm(4)=   0.000000  celldm(5)=   0.000000  celldm(6)=   0.000000

     crystal axes: (cart. coord. in units of alat)
               a(1) = (  -0.500000   0.000000   0.500000 )  
               a(2) = (   0.000000   0.500000   0.500000 )  
               a(3) = (  -0.500000   0.500000   0.000000 )  

     reciprocal axes: (cart. coord. in units 2 pi/alat)
               b(1) = ( -1.000000 -1.000000  1.000000 )  
               b(2) = (  1.000000  1.000000  1.000000 )  
               b(3) = ( -1.000000  1.000000 -1.000000 )  


     PseudoPot. # 1 for Si read from file:
     /home/max/quantum_espresso/qe-6.1/pseudo/si_pbe_v1.uspp.F.UPF.txt
     MD5 check sum: a056efeee980c13900f22a371efd63c1
     Pseudo is Ultrasoft + core correction, Zval =  4.0
     Generated by new atomic code, or converted to UPF format
     Using radial grid of  899 points,  6 beta functions with: 
                l(1) =   0
                l(2) =   0
                l(3) =   1
                l(4) =   1
                l(5) =   2
                l(6) =   2
     Q(r) pseudized with  8 coefficients,  rinner =    0.900   0.900   0.900
                                                       0.900   0.900

     atomic species   valence    mass     pseudopotential
        Si             4.00    28.08600     Si( 1.00)

     48 Sym. Ops., with inversion, found (24 have fractional translation)



   Cartesian axes

     site n.     atom                  positions (alat units)
         1           Si  tau(   1) = (   0.0000000   0.0000000   0.0000000  )
         2           Si  tau(   2) = (   0.2500000   0.2500000   0.2500000  )

     number of k points=    28
                       cart. coord. in units 2pi/alat
        k(    1) = (  -0.0833333   0.0833333   0.0833333), wk =   0.0185185
        k(    2) = (  -0.2500000   0.2500000  -0.0833333), wk =   0.0555556
        k(    3) = (  -0.4166667   0.4166667  -0.2500000), wk =   0.0555556
        k(    4) = (   0.4166667  -0.4166667   0.5833333), wk =   0.0555556
        k(    5) = (   0.2500000  -0.2500000   0.4166667), wk =   0.0555556
        k(    6) = (   0.0833333  -0.0833333   0.2500000), wk =   0.0555556
        k(    7) = (  -0.0833333   0.4166667   0.0833333), wk =   0.0555556
        k(    8) = (  -0.2500000   0.5833333  -0.0833333), wk =   0.1111111
        k(    9) = (   0.5833333  -0.2500000   0.7500000), wk =   0.1111111
        k(   10) = (   0.4166667  -0.0833333   0.5833333), wk =   0.1111111
        k(   11) = (   0.2500000   0.0833333   0.4166667), wk =   0.1111111
        k(   12) = (  -0.0833333   0.7500000   0.0833333), wk =   0.0555556
        k(   13) = (   0.7500000  -0.0833333   0.9166667), wk =   0.1111111
        k(   14) = (   0.5833333   0.0833333   0.7500000), wk =   0.1111111
        k(   15) = (   0.4166667   0.2500000   0.5833333), wk =   0.1111111
        k(   16) = (  -0.0833333  -0.9166667   0.0833333), wk =   0.0555556
        k(   17) = (  -0.2500000  -0.7500000  -0.0833333), wk =   0.1111111
        k(   18) = (  -0.0833333  -0.5833333   0.0833333), wk =   0.0555556
        k(   19) = (  -0.2500000   0.2500000   0.2500000), wk =   0.0185185
        k(   20) = (  -0.4166667   0.4166667   0.0833333), wk =   0.0555556
        k(   21) = (   0.4166667  -0.4166667   0.9166667), wk =   0.0555556
        k(   22) = (   0.2500000  -0.2500000   0.7500000), wk =   0.0555556
        k(   23) = (  -0.2500000   0.5833333   0.2500000), wk =   0.0555556
        k(   24) = (   0.5833333  -0.2500000   1.0833333), wk =   0.1111111
        k(   25) = (   0.4166667  -0.0833333   0.9166667), wk =   0.1111111
        k(   26) = (  -0.2500000  -1.0833333   0.2500000), wk =   0.0555556
        k(   27) = (  -0.4166667   0.4166667   0.4166667), wk =   0.0185185
        k(   28) = (   0.4166667  -0.4166667   1.2500000), wk =   0.0555556

     Dense  grid:    16889 G-vectors     FFT dimensions: (  36,  36,  36)

     Smooth grid:     5985 G-vectors     FFT dimensions: (  25,  25,  25)

     Estimated max dynamical RAM per process >       3.01MB

     Estimated total allocated dynamical RAM >      12.04MB

     Initial potential from superposition of free atoms

     starting charge    7.99866, renormalised to    8.00000
     Starting wfc are    8 randomized atomic wfcs

     total cpu time spent up to now is        0.5 secs

     per-process dynamical memory:    10.1 Mb

     Self-consistent Calculation

     iteration #  1     ecut=    30.00 Ry     beta=0.70
     Davidson diagonalization with overlap
     ethr =  1.00E-02,  avg # of iterations =  2.0

     Threshold (ethr) on eigenvalues was too large:
     Diagonalizing with lowered threshold

     Davidson diagonalization with overlap
     ethr =  6.94E-04,  avg # of iterations =  1.0

     total cpu time spent up to now is        1.0 secs

     total energy              =     -19.19093591 Ry
     Harris-Foulkes estimate   =     -19.20401793 Ry
     estimated scf accuracy    <       0.05501149 Ry

     iteration #  2     ecut=    30.00 Ry     beta=0.70
     Davidson diagonalization with overlap
     ethr =  6.88E-04,  avg # of iterations =  1.0

     total cpu time spent up to now is        1.5 secs

     total energy              =     -19.19278863 Ry
     Harris-Foulkes estimate   =     -19.19295828 Ry
     estimated scf accuracy    <       0.00244434 Ry

     iteration #  3     ecut=    30.00 Ry     beta=0.70
     Davidson diagonalization with overlap
     ethr =  3.06E-05,  avg # of iterations =  2.0

     total cpu time spent up to now is        1.8 secs

     total energy              =     -19.19312797 Ry
     Harris-Foulkes estimate   =     -19.19314175 Ry
     estimated scf accuracy    <       0.00004460 Ry

     iteration #  4     ecut=    30.00 Ry     beta=0.70
     Davidson diagonalization with overlap
     ethr =  5.58E-07,  avg # of iterations =  3.4

     total cpu time spent up to now is        2.1 secs

     total energy              =     -19.19316960 Ry
     Harris-Foulkes estimate   =     -19.19317057 Ry
     estimated scf accuracy    <       0.00000341 Ry

     iteration #  5     ecut=    30.00 Ry     beta=0.70
     Davidson diagonalization with overlap
     ethr =  4.26E-08,  avg # of iterations =  2.0

     total cpu time spent up to now is        2.3 secs

     total energy              =     -19.19317006 Ry
     Harris-Foulkes estimate   =     -19.19317006 Ry
     estimated scf accuracy    <       0.00000001 Ry

     iteration #  6     ecut=    30.00 Ry     beta=0.70
     Davidson diagonalization with overlap
     ethr =  1.36E-10,  avg # of iterations =  4.0

     total cpu time spent up to now is        2.6 secs

     End of self-consistent calculation

          k =-0.0833 0.0833 0.0833 (   737 PWs)   bands (ev):

    -5.6940   5.2807   5.9961   5.9961

          k =-0.2500 0.2500-0.0833 (   760 PWs)   bands (ev):

    -5.2180   3.2015   4.7610   5.7862

          k =-0.4167 0.4167-0.2500 (   760 PWs)   bands (ev):

    -4.1272   0.4409   4.2974   5.1495

          k = 0.4167-0.4167 0.5833 (   755 PWs)   bands (ev):

    -3.4297  -0.7022   4.3641   4.7690

          k = 0.2500-0.2500 0.4167 (   762 PWs)   bands (ev):

    -4.5384   1.2868   4.8287   4.8632

          k = 0.0833-0.0833 0.2500 (   755 PWs)   bands (ev):

    -5.4537   4.2127   5.3501   5.5374

          k =-0.0833 0.4167 0.0833 (   752 PWs)   bands (ev):

    -4.9771   3.0149   4.6061   4.6205

          k =-0.2500 0.5833-0.0833 (   756 PWs)   bands (ev):

    -4.0680   1.1763   3.2879   4.2340

          k = 0.5833-0.2500 0.7500 (   751 PWs)   bands (ev):

    -2.9530  -0.5735   2.6870   4.0067

          k = 0.4167-0.0833 0.5833 (   758 PWs)   bands (ev):

    -3.6740   0.4837   2.6450   4.4932

          k = 0.2500 0.0833 0.4167 (   760 PWs)   bands (ev):

    -4.7520   2.1778   3.9847   5.1615

          k =-0.0833 0.7500 0.0833 (   756 PWs)   bands (ev):

    -3.3573   0.3503   3.2521   3.5922

          k = 0.7500-0.0833 0.9167 (   749 PWs)   bands (ev):

    -2.1627  -0.9887   2.4102   3.1855

          k = 0.5833 0.0833 0.7500 (   745 PWs)   bands (ev):

    -2.5334  -0.6536   1.9273   3.7308

          k = 0.4167 0.2500 0.5833 (   756 PWs)   bands (ev):

    -3.5621  -0.2011   3.5872   4.5911

          k =-0.0833-0.9167 0.0833 (   751 PWs)   bands (ev):

    -2.2544  -0.9967   2.9826   3.3770

          k =-0.2500-0.7500-0.0833 (   755 PWs)   bands (ev):

    -3.1889   0.1269   2.7319   3.5257

          k =-0.0833-0.5833 0.0833 (   751 PWs)   bands (ev):

    -4.2732   1.7151   3.7968   4.0142

          k =-0.2500 0.2500 0.2500 (   757 PWs)   bands (ev):

    -4.9888   2.2227   5.3827   5.3827

          k =-0.4167 0.4167 0.0833 (   751 PWs)   bands (ev):

    -4.3105   1.2904   3.2520   5.2136

          k = 0.4167-0.4167 0.9167 (   753 PWs)   bands (ev):

    -3.1330  -0.1494   2.1454   4.4274

          k = 0.2500-0.2500 0.7500 (   758 PWs)   bands (ev):

    -3.0808  -0.2287   2.6241   3.9455

          k =-0.2500 0.5833 0.2500 (   759 PWs)   bands (ev):

    -3.8871   0.4831   3.7172   4.3185

          k = 0.5833-0.2500 1.0833 (   749 PWs)   bands (ev):

    -2.8863  -0.2621   2.2454   3.5233

          k = 0.4167-0.0833 0.9167 (   747 PWs)   bands (ev):

    -2.0562  -0.9965   2.0809   2.8561

          k =-0.2500-1.0833 0.2500 (   747 PWs)   bands (ev):

    -2.2665  -0.9025   1.9547   3.7510

          k =-0.4167 0.4167 0.4167 (   763 PWs)   bands (ev):

    -3.7984  -0.3022   4.9945   4.9945

          k = 0.4167-0.4167 1.2500 (   755 PWs)   bands (ev):

    -3.1943  -0.6038   3.1618   4.5542

     highest occupied level (ev):     5.9961

!    total energy              =     -19.19317010 Ry
     Harris-Foulkes estimate   =     -19.19317010 Ry
     estimated scf accuracy    <          8.8E-10 Ry

     The total energy is the sum of the following terms:

     one-electron contribution =       5.06995212 Ry
     hartree contribution      =       1.12022409 Ry
     xc contribution           =      -8.61510337 Ry
     ewald contribution        =     -16.76824294 Ry

     convergence has been achieved in   6 iterations

     Writing output data file silicon.10.28.save

     init_run     :      0.34s CPU      0.40s WALL (       1 calls)
     electrons    :      1.51s CPU      2.13s WALL (       1 calls)

     Called by init_run:
     wfcinit      :      0.08s CPU      0.10s WALL (       1 calls)
     potinit      :      0.02s CPU      0.03s WALL (       1 calls)

     Called by electrons:
     c_bands      :      0.92s CPU      1.30s WALL (       7 calls)
     sum_band     :      0.34s CPU      0.47s WALL (       7 calls)
     v_of_rho     :      0.09s CPU      0.14s WALL (       7 calls)
     newd         :      0.16s CPU      0.21s WALL (       7 calls)
     mix_rho      :      0.01s CPU      0.01s WALL (       7 calls)

     Called by c_bands:
     init_us_2    :      0.05s CPU      0.07s WALL (     420 calls)
     cegterg      :      0.79s CPU      1.13s WALL (     196 calls)

     Called by sum_band:
     sum_band:bec :      0.00s CPU      0.00s WALL (     196 calls)
     addusdens    :      0.16s CPU      0.21s WALL (       7 calls)

     Called by *egterg:
     h_psi        :      0.67s CPU      0.96s WALL (     658 calls)
     s_psi        :      0.05s CPU      0.06s WALL (     658 calls)
     g_psi        :      0.00s CPU      0.00s WALL (     434 calls)
     cdiaghg      :      0.05s CPU      0.06s WALL (     602 calls)

     Called by h_psi:
     h_psi:pot    :      0.66s CPU      0.96s WALL (     658 calls)
     h_psi:calbec :      0.07s CPU      0.11s WALL (     658 calls)
     vloc_psi     :      0.54s CPU      0.79s WALL (     658 calls)
     add_vuspsi   :      0.05s CPU      0.06s WALL (     658 calls)

     General routines
     calbec       :      0.09s CPU      0.14s WALL (     854 calls)
     fft          :      0.09s CPU      0.18s WALL (     112 calls)
     ffts         :      0.00s CPU      0.01s WALL (      14 calls)
     fftw         :      0.54s CPU      0.81s WALL (    5716 calls)
     interpolate  :      0.01s CPU      0.02s WALL (      14 calls)
     davcio       :      0.00s CPU      0.00s WALL (      28 calls)

     Parallel routines
     fft_scatter  :      0.28s CPU      0.60s WALL (    5842 calls)

     PWSCF        :     2.05s CPU         2.76s WALL


   This run was terminated on:  10:28:47  10Nov2017            

=------------------------------------------------------------------------------=
   JOB DONE.
=------------------------------------------------------------------------------=
