
     Program PHONON v.6.1 (svn rev. 13369) starts on  9Nov2017 at 12:42: 8 

     This program is part of the open-source Quantum ESPRESSO suite
     for quantum simulation of materials; please cite
         "P. Giannozzi et al., J. Phys.:Condens. Matter 21 395502 (2009);
          URL http://www.quantum-espresso.org", 
     in publications or presentations arising from this work. More details at
     http://www.quantum-espresso.org/quote

     Parallel version (MPI), running on     4 processors
     R & G space division:  proc/nbgrp/npool/nimage =       4

     Reading data from directory:
     ./silicon.10.343.save

   Info: using nr1, nr2, nr3 values from input

   Info: using nr1, nr2, nr3 values from input

     IMPORTANT: XC functional enforced from input :
     Exchange-correlation      = SLA  PW   PBE  PBE ( 1  4  3  4 0 0)
     Any further DFT definition will be discarded
     Please, verify this is what you really want


     Parallelization info
     --------------------
     sticks:   dense  smooth     PW     G-vecs:    dense   smooth      PW
     Min          64      64     22                  709      709     140
     Max          67      67     23                  710      710     141
     Sum         265     265     91                 2837     2837     561


     Check: negative/imaginary core charge=   -0.000006    0.000000


     Dynamical matrices for ( 4, 4, 4)  uniform grid of q-points
     (   8q-points):
       N         xq(1)         xq(2)         xq(3) 
       1   0.000000000   0.000000000   0.000000000
       2  -0.250000000   0.250000000  -0.250000000
       3   0.500000000  -0.500000000   0.500000000
       4   0.000000000   0.500000000   0.000000000
       5   0.750000000  -0.250000000   0.750000000
       6   0.500000000   0.000000000   0.500000000
       7   0.000000000  -1.000000000   0.000000000
       8  -0.500000000  -1.000000000   0.000000000

     Calculation of q =    0.0000000   0.0000000   0.0000000

                                                                                

     bravais-lattice index     =            2
     lattice parameter (alat)  =      10.3430  a.u.
     unit-cell volume          =     276.6175 (a.u.)^3
     number of atoms/cell      =            2
     number of atomic types    =            1
     kinetic-energy cut-off    =      18.0000  Ry
     charge density cut-off    =      72.0000  Ry
     convergence threshold     =      1.0E-12
     beta                      =       0.7000
     number of iterations used =            4
     Exchange-correlation      = SLA  PW   PBE  PBE ( 1  4  3  4 0 0)


     celldm(1)=   10.34300  celldm(2)=    0.00000  celldm(3)=    0.00000
     celldm(4)=    0.00000  celldm(5)=    0.00000  celldm(6)=    0.00000

     crystal axes: (cart. coord. in units of alat)
               a(1) = ( -0.5000  0.0000  0.5000 )  
               a(2) = (  0.0000  0.5000  0.5000 )  
               a(3) = ( -0.5000  0.5000  0.0000 )  

     reciprocal axes: (cart. coord. in units 2 pi/alat)
               b(1) = ( -1.0000 -1.0000  1.0000 )  
               b(2) = (  1.0000  1.0000  1.0000 )  
               b(3) = ( -1.0000  1.0000 -1.0000 )  


     Atoms inside the unit cell: 

     Cartesian axes

     site n.  atom      mass           positions (alat units)
        1     Si  28.0860   tau(    1) = (    0.00000    0.00000    0.00000  )
        2     Si  28.0860   tau(    2) = (    0.25000    0.25000    0.25000  )

     Computing dynamical matrix for 
                    q = (   0.0000000   0.0000000   0.0000000 )

     49 Sym.Ops. (with q -> -q+G )


     G cutoff =  195.1038  (    710 G-vectors)     FFT grid: ( 20, 20, 20)
     number of k points=    10

     PseudoPot. # 1 for Si read from file:
     /home/max/quantum_espresso/qe-6.1/pseudo/si_pbe_v1.uspp.F.UPF.txt
     MD5 check sum: a056efeee980c13900f22a371efd63c1
     Pseudo is Ultrasoft + core correction, Zval =  4.0
     Generated by new atomic code, or converted to UPF format
     Using radial grid of  899 points,  6 beta functions with: 
                l(1) =   0
                l(2) =   0
                l(3) =   1
                l(4) =   1
                l(5) =   2
                l(6) =   2
     Q(r) pseudized with  8 coefficients,  rinner =    0.900   0.900   0.900
                                                       0.900   0.900

     Mode symmetry, O_h (m-3m)  point group:


     Electric field:
     Dielectric constant
     Born effective charges in two ways 


     Atomic displacements:
     There are   2 irreducible representations

     Representation     1      3 modes -T_2g G_25' G_5+  To be done

     Representation     2      3 modes -T_1u G_15  G_4-  To be done



     Alpha used in Ewald sum =   0.7000
     PHONON       :     0.41s CPU         0.43s WALL


     Electric Fields Calculation

      iter #   1 total cpu time :     1.0 secs   av.it.:   5.6
      thresh= 1.000E-02 alpha_mix =  0.700 |ddv_scf|^2 =  9.351E-07

      iter #   2 total cpu time :     1.2 secs   av.it.:   9.9
      thresh= 9.670E-05 alpha_mix =  0.700 |ddv_scf|^2 =  5.958E-08

      iter #   3 total cpu time :     1.4 secs   av.it.:   9.8
      thresh= 2.441E-05 alpha_mix =  0.700 |ddv_scf|^2 =  4.685E-09

      iter #   4 total cpu time :     1.6 secs   av.it.:   8.9
      thresh= 6.845E-06 alpha_mix =  0.700 |ddv_scf|^2 =  2.813E-11

      iter #   5 total cpu time :     1.8 secs   av.it.:   9.1
      thresh= 5.304E-07 alpha_mix =  0.700 |ddv_scf|^2 =  1.460E-14

     End of electric fields calculation

          Dielectric constant in cartesian axis 

          (      13.888394665      -0.000000000       0.000000000 )
          (      -0.000000000      13.888394665      -0.000000000 )
          (      -0.000000000      -0.000000000      13.888394665 )

          Effective charges (d Force / dE) in cartesian axis

           atom      1   Si 
      Ex  (       -0.03558        0.00000        0.00000 )
      Ey  (        0.00000       -0.03558       -0.00000 )
      Ez  (        0.00000       -0.00000       -0.03558 )
           atom      2   Si 
      Ex  (       -0.03558       -0.00000       -0.00000 )
      Ey  (       -0.00000       -0.03558        0.00000 )
      Ez  (        0.00000        0.00000       -0.03558 )


     Representation #  1 modes #   1  2  3

     Self-consistent Calculation

      iter #   1 total cpu time :     2.2 secs   av.it.:   5.0
      thresh= 1.000E-02 alpha_mix =  0.700 |ddv_scf|^2 =  2.234E-07

      iter #   2 total cpu time :     2.4 secs   av.it.:   9.9
      thresh= 4.727E-05 alpha_mix =  0.700 |ddv_scf|^2 =  1.383E-08

      iter #   3 total cpu time :     2.6 secs   av.it.:   9.2
      thresh= 1.176E-05 alpha_mix =  0.700 |ddv_scf|^2 =  8.586E-10

      iter #   4 total cpu time :     3.0 secs   av.it.:   9.0
      thresh= 2.930E-06 alpha_mix =  0.700 |ddv_scf|^2 =  1.898E-12

      iter #   5 total cpu time :     3.2 secs   av.it.:   9.5
      thresh= 1.378E-07 alpha_mix =  0.700 |ddv_scf|^2 =  1.336E-14

     End of self-consistent calculation

     Convergence has been achieved 


     Representation #  2 modes #   4  5  6

     Self-consistent Calculation

      iter #   1 total cpu time :     3.4 secs   av.it.:   5.0
      thresh= 1.000E-02 alpha_mix =  0.700 |ddv_scf|^2 =  1.850E-07

      iter #   2 total cpu time :     3.6 secs   av.it.:   9.6
      thresh= 4.301E-05 alpha_mix =  0.700 |ddv_scf|^2 =  1.500E-08

      iter #   3 total cpu time :     3.8 secs   av.it.:   9.3
      thresh= 1.225E-05 alpha_mix =  0.700 |ddv_scf|^2 =  9.124E-10

      iter #   4 total cpu time :     4.0 secs   av.it.:   9.5
      thresh= 3.021E-06 alpha_mix =  0.700 |ddv_scf|^2 =  5.321E-12

      iter #   5 total cpu time :     4.2 secs   av.it.:   9.0
      thresh= 2.307E-07 alpha_mix =  0.700 |ddv_scf|^2 =  4.665E-15

     End of self-consistent calculation

     Convergence has been achieved 

     Number of q in the star =    1
     List of q in the star:
          1   0.000000000   0.000000000   0.000000000

          Dielectric constant in cartesian axis 

          (      13.888394665      -0.000000000       0.000000000 )
          (      -0.000000000      13.888394665      -0.000000000 )
          (      -0.000000000      -0.000000000      13.888394665 )

          Effective charges (d Force / dE) in cartesian axis

           atom      1   Si 
      Ex  (       -0.03558        0.00000        0.00000 )
      Ey  (        0.00000       -0.03558       -0.00000 )
      Ez  (        0.00000       -0.00000       -0.03558 )
           atom      2   Si 
      Ex  (       -0.03558       -0.00000       -0.00000 )
      Ey  (       -0.00000       -0.03558        0.00000 )
      Ez  (        0.00000        0.00000       -0.03558 )

          Effective charges (d P / du) in cartesian axis 

           atom      1   Si 
      Px  (       -0.07511       -0.00000       -0.00000 )
      Py  (       -0.00000       -0.07511        0.00000 )
      Pz  (       -0.00000        0.00000       -0.07511 )
           atom      2   Si 
      Px  (       -0.07511        0.00000       -0.00000 )
      Py  (       -0.00000       -0.07511       -0.00000 )
      Pz  (       -0.00000        0.00000       -0.07511 )

     Diagonalizing the dynamical matrix

     q = (    0.000000000   0.000000000   0.000000000 ) 

 **************************************************************************
     freq (    1) =       1.894592 [THz] =      63.196772 [cm-1]
     freq (    2) =       1.894592 [THz] =      63.196772 [cm-1]
     freq (    3) =       1.894592 [THz] =      63.196772 [cm-1]
     freq (    4) =      15.346421 [THz] =     511.901506 [cm-1]
     freq (    5) =      15.346421 [THz] =     511.901506 [cm-1]
     freq (    6) =      15.346421 [THz] =     511.901506 [cm-1]
 **************************************************************************

     Mode symmetry, O_h (m-3m)  point group:

     freq (  1 -  3) =         63.2  [cm-1]   --> T_1u G_15  G_4- I  
     freq (  4 -  6) =        511.9  [cm-1]   --> T_2g G_25' G_5+ R  

     Calculation of q =   -0.2500000   0.2500000  -0.2500000

   Info: using nr1, nr2, nr3 values from input

   Info: using nr1, nr2, nr3 values from input

     Parallelization info
     --------------------
     sticks:   dense  smooth     PW     G-vecs:    dense   smooth      PW
     Min          64      64     24                  709      709     161
     Max          67      67     25                  710      710     162
     Sum         265     265     97                 2837     2837     645



     bravais-lattice index     =            2
     lattice parameter (alat)  =      10.3430  a.u.
     unit-cell volume          =     276.6175 (a.u.)^3
     number of atoms/cell      =            2
     number of atomic types    =            1
     number of electrons       =         8.00
     number of Kohn-Sham states=            4
     kinetic-energy cutoff     =      18.0000  Ry
     charge density cutoff     =      72.0000  Ry
     Exchange-correlation      = SLA  PW   PBE  PBE ( 1  4  3  4 0 0)

     celldm(1)=  10.343000  celldm(2)=   0.000000  celldm(3)=   0.000000
     celldm(4)=   0.000000  celldm(5)=   0.000000  celldm(6)=   0.000000

     crystal axes: (cart. coord. in units of alat)
               a(1) = (  -0.500000   0.000000   0.500000 )  
               a(2) = (   0.000000   0.500000   0.500000 )  
               a(3) = (  -0.500000   0.500000   0.000000 )  

     reciprocal axes: (cart. coord. in units 2 pi/alat)
               b(1) = ( -1.000000 -1.000000  1.000000 )  
               b(2) = (  1.000000  1.000000  1.000000 )  
               b(3) = ( -1.000000  1.000000 -1.000000 )  


     PseudoPot. # 1 for Si read from file:
     /home/max/quantum_espresso/qe-6.1/pseudo/si_pbe_v1.uspp.F.UPF.txt
     MD5 check sum: a056efeee980c13900f22a371efd63c1
     Pseudo is Ultrasoft + core correction, Zval =  4.0
     Generated by new atomic code, or converted to UPF format
     Using radial grid of  899 points,  6 beta functions with: 
                l(1) =   0
                l(2) =   0
                l(3) =   1
                l(4) =   1
                l(5) =   2
                l(6) =   2
     Q(r) pseudized with  8 coefficients,  rinner =    0.900   0.900   0.900
                                                       0.900   0.900

     atomic species   valence    mass     pseudopotential
        Si             4.00    28.08600     Si( 1.00)

     48 Sym. Ops., with inversion, found



   Cartesian axes

     site n.     atom                  positions (alat units)
         1           Si  tau(   1) = (   0.0000000   0.0000000   0.0000000  )
         2           Si  tau(   2) = (   0.2500000   0.2500000   0.2500000  )

     number of k points=   120

     Number of k-points >= 100: set verbosity='high' to print them.

     Dense  grid:     2837 G-vectors     FFT dimensions: (  20,  20,  20)

     Estimated max dynamical RAM per process >       0.33MB

     Estimated total allocated dynamical RAM >       1.32MB

     Check: negative/imaginary core charge=   -0.000006    0.000000

     The potential is recalculated from file :
     ./_ph0/silicon.10.343.save/charge-density.dat

     Starting wfc are    8 atomic wfcs

     Band Structure Calculation
     Davidson diagonalization with overlap

     ethr =  1.25E-10,  avg # of iterations = 11.7

     total cpu time spent up to now is        1.0 secs

     End of band structure calculation

     Number of k-points >= 100: set verbosity='high' to print the bands.

     highest occupied level (ev):     5.6728

     Writing output data file silicon.10.343.save

                                                                                

     bravais-lattice index     =            2
     lattice parameter (alat)  =      10.3430  a.u.
     unit-cell volume          =     276.6175 (a.u.)^3
     number of atoms/cell      =            2
     number of atomic types    =            1
     kinetic-energy cut-off    =      18.0000  Ry
     charge density cut-off    =      72.0000  Ry
     convergence threshold     =      1.0E-12
     beta                      =       0.7000
     number of iterations used =            4
     Exchange-correlation      = SLA  PW   PBE  PBE ( 1  4  3  4 0 0)


     celldm(1)=   10.34300  celldm(2)=    0.00000  celldm(3)=    0.00000
     celldm(4)=    0.00000  celldm(5)=    0.00000  celldm(6)=    0.00000

     crystal axes: (cart. coord. in units of alat)
               a(1) = ( -0.5000  0.0000  0.5000 )  
               a(2) = (  0.0000  0.5000  0.5000 )  
               a(3) = ( -0.5000  0.5000  0.0000 )  

     reciprocal axes: (cart. coord. in units 2 pi/alat)
               b(1) = ( -1.0000 -1.0000  1.0000 )  
               b(2) = (  1.0000  1.0000  1.0000 )  
               b(3) = ( -1.0000  1.0000 -1.0000 )  


     Atoms inside the unit cell: 

     Cartesian axes

     site n.  atom      mass           positions (alat units)
        1     Si  28.0860   tau(    1) = (    0.00000    0.00000    0.00000  )
        2     Si  28.0860   tau(    2) = (    0.25000    0.25000    0.25000  )

     Computing dynamical matrix for 
                    q = (  -0.2500000   0.2500000  -0.2500000 )

      6 Sym.Ops. (no q -> -q+G )


     G cutoff =  195.1038  (    710 G-vectors)     FFT grid: ( 20, 20, 20)
     number of k points=   120

     PseudoPot. # 1 for Si read from file:
     /home/max/quantum_espresso/qe-6.1/pseudo/si_pbe_v1.uspp.F.UPF.txt
     MD5 check sum: a056efeee980c13900f22a371efd63c1
     Pseudo is Ultrasoft + core correction, Zval =  4.0
     Generated by new atomic code, or converted to UPF format
     Using radial grid of  899 points,  6 beta functions with: 
                l(1) =   0
                l(2) =   0
                l(3) =   1
                l(4) =   1
                l(5) =   2
                l(6) =   2
     Q(r) pseudized with  8 coefficients,  rinner =    0.900   0.900   0.900
                                                       0.900   0.900

     Mode symmetry, C_3v (3m)   point group:


     Atomic displacements:
     There are   4 irreducible representations

     Representation     1      1 modes -A_1  L_1  To be done

     Representation     2      1 modes -A_1  L_1  To be done

     Representation     3      2 modes -E    L_3  To be done

     Representation     4      2 modes -E    L_3  To be done



     Alpha used in Ewald sum =   0.7000
     PHONON       :     5.35s CPU         5.78s WALL



     Representation #  1 mode #   1

     Self-consistent Calculation

      iter #   1 total cpu time :     6.0 secs   av.it.:   5.5
      thresh= 1.000E-02 alpha_mix =  0.700 |ddv_scf|^2 =  2.465E-03

      iter #   2 total cpu time :     6.3 secs   av.it.:   7.5
      thresh= 4.965E-03 alpha_mix =  0.700 |ddv_scf|^2 =  3.724E-02

      iter #   3 total cpu time :     6.6 secs   av.it.:   6.3
      thresh= 1.000E-02 alpha_mix =  0.700 |ddv_scf|^2 =  1.717E-06

      iter #   4 total cpu time :     7.1 secs   av.it.:   8.2
      thresh= 1.310E-04 alpha_mix =  0.700 |ddv_scf|^2 =  1.162E-07

      iter #   5 total cpu time :     7.4 secs   av.it.:   8.1
      thresh= 3.408E-05 alpha_mix =  0.700 |ddv_scf|^2 =  4.696E-09

      iter #   6 total cpu time :     7.7 secs   av.it.:   8.0
      thresh= 6.853E-06 alpha_mix =  0.700 |ddv_scf|^2 =  4.874E-09

      iter #   7 total cpu time :     7.9 secs   av.it.:   6.1
      thresh= 6.981E-06 alpha_mix =  0.700 |ddv_scf|^2 =  4.419E-10

      iter #   8 total cpu time :     8.2 secs   av.it.:   7.3
      thresh= 2.102E-06 alpha_mix =  0.700 |ddv_scf|^2 =  3.953E-12

      iter #   9 total cpu time :     8.5 secs   av.it.:   7.2
      thresh= 1.988E-07 alpha_mix =  0.700 |ddv_scf|^2 =  1.503E-13

     End of self-consistent calculation

     Convergence has been achieved 


     Representation #  2 mode #   2

     Self-consistent Calculation

      iter #   1 total cpu time :     8.7 secs   av.it.:   5.5
      thresh= 1.000E-02 alpha_mix =  0.700 |ddv_scf|^2 =  2.465E-03

      iter #   2 total cpu time :     9.2 secs   av.it.:   7.5
      thresh= 4.965E-03 alpha_mix =  0.700 |ddv_scf|^2 =  3.724E-02

      iter #   3 total cpu time :     9.4 secs   av.it.:   6.3
      thresh= 1.000E-02 alpha_mix =  0.700 |ddv_scf|^2 =  1.717E-06

      iter #   4 total cpu time :     9.7 secs   av.it.:   8.2
      thresh= 1.310E-04 alpha_mix =  0.700 |ddv_scf|^2 =  1.162E-07

      iter #   5 total cpu time :    10.0 secs   av.it.:   8.1
      thresh= 3.408E-05 alpha_mix =  0.700 |ddv_scf|^2 =  4.696E-09

      iter #   6 total cpu time :    10.3 secs   av.it.:   8.0
      thresh= 6.853E-06 alpha_mix =  0.700 |ddv_scf|^2 =  4.874E-09

      iter #   7 total cpu time :    10.6 secs   av.it.:   6.1
      thresh= 6.981E-06 alpha_mix =  0.700 |ddv_scf|^2 =  4.419E-10

      iter #   8 total cpu time :    11.1 secs   av.it.:   7.3
      thresh= 2.102E-06 alpha_mix =  0.700 |ddv_scf|^2 =  3.953E-12

      iter #   9 total cpu time :    11.3 secs   av.it.:   7.2
      thresh= 1.988E-07 alpha_mix =  0.700 |ddv_scf|^2 =  1.503E-13

     End of self-consistent calculation

     Convergence has been achieved 


     Representation #  3 modes #   3  4

     Self-consistent Calculation

      iter #   1 total cpu time :    11.8 secs   av.it.:   5.0
      thresh= 1.000E-02 alpha_mix =  0.700 |ddv_scf|^2 =  5.710E-07

      iter #   2 total cpu time :    12.5 secs   av.it.:   9.4
      thresh= 7.556E-05 alpha_mix =  0.700 |ddv_scf|^2 =  4.293E-08

      iter #   3 total cpu time :    13.3 secs   av.it.:   9.2
      thresh= 2.072E-05 alpha_mix =  0.700 |ddv_scf|^2 =  3.713E-09

      iter #   4 total cpu time :    13.9 secs   av.it.:   8.9
      thresh= 6.094E-06 alpha_mix =  0.700 |ddv_scf|^2 =  1.115E-11

      iter #   5 total cpu time :    14.6 secs   av.it.:   9.2
      thresh= 3.339E-07 alpha_mix =  0.700 |ddv_scf|^2 =  4.982E-13

     End of self-consistent calculation

     Convergence has been achieved 


     Representation #  4 modes #   5  6

     Self-consistent Calculation

      iter #   1 total cpu time :    15.2 secs   av.it.:   5.0
      thresh= 1.000E-02 alpha_mix =  0.700 |ddv_scf|^2 =  5.708E-07

      iter #   2 total cpu time :    15.9 secs   av.it.:   9.6
      thresh= 7.555E-05 alpha_mix =  0.700 |ddv_scf|^2 =  4.288E-08

      iter #   3 total cpu time :    16.5 secs   av.it.:   9.4
      thresh= 2.071E-05 alpha_mix =  0.700 |ddv_scf|^2 =  3.709E-09

      iter #   4 total cpu time :    17.4 secs   av.it.:   9.1
      thresh= 6.091E-06 alpha_mix =  0.700 |ddv_scf|^2 =  1.115E-11

      iter #   5 total cpu time :    18.0 secs   av.it.:   9.2
      thresh= 3.340E-07 alpha_mix =  0.700 |ddv_scf|^2 =  4.987E-13

     End of self-consistent calculation

     Convergence has been achieved 

     Number of q in the star =    8
     List of q in the star:
          1  -0.250000000   0.250000000  -0.250000000
          2   0.250000000  -0.250000000  -0.250000000
          3   0.250000000  -0.250000000   0.250000000
          4   0.250000000   0.250000000   0.250000000
          5  -0.250000000  -0.250000000  -0.250000000
          6  -0.250000000  -0.250000000   0.250000000
          7  -0.250000000   0.250000000   0.250000000
          8   0.250000000   0.250000000  -0.250000000

     Diagonalizing the dynamical matrix

     q = (   -0.250000000   0.250000000  -0.250000000 ) 

 **************************************************************************
     freq (    1) =       3.397709 [THz] =     113.335383 [cm-1]
     freq (    2) =       3.397709 [THz] =     113.335383 [cm-1]
     freq (    3) =       6.923112 [THz] =     230.930174 [cm-1]
     freq (    4) =      14.425173 [THz] =     481.171990 [cm-1]
     freq (    5) =      14.734542 [THz] =     491.491420 [cm-1]
     freq (    6) =      14.734542 [THz] =     491.491420 [cm-1]
 **************************************************************************

     Mode symmetry, C_3v (3m)   point group:

     freq (  1 -  2) =        113.3  [cm-1]   --> E    L_3           
     freq (  3 -  3) =        230.9  [cm-1]   --> A_1  L_1           
     freq (  4 -  4) =        481.2  [cm-1]   --> A_1  L_1           
     freq (  5 -  6) =        491.5  [cm-1]   --> E    L_3           

     Calculation of q =    0.5000000  -0.5000000   0.5000000

   Info: using nr1, nr2, nr3 values from input

   Info: using nr1, nr2, nr3 values from input

     Parallelization info
     --------------------
     sticks:   dense  smooth     PW     G-vecs:    dense   smooth      PW
     Min          64      64     27                  709      709     186
     Max          67      67     28                  710      710     189
     Sum         265     265    109                 2837     2837     749



     bravais-lattice index     =            2
     lattice parameter (alat)  =      10.3430  a.u.
     unit-cell volume          =     276.6175 (a.u.)^3
     number of atoms/cell      =            2
     number of atomic types    =            1
     number of electrons       =         8.00
     number of Kohn-Sham states=            4
     kinetic-energy cutoff     =      18.0000  Ry
     charge density cutoff     =      72.0000  Ry
     Exchange-correlation      = SLA  PW   PBE  PBE ( 1  4  3  4 0 0)

     celldm(1)=  10.343000  celldm(2)=   0.000000  celldm(3)=   0.000000
     celldm(4)=   0.000000  celldm(5)=   0.000000  celldm(6)=   0.000000

     crystal axes: (cart. coord. in units of alat)
               a(1) = (  -0.500000   0.000000   0.500000 )  
               a(2) = (   0.000000   0.500000   0.500000 )  
               a(3) = (  -0.500000   0.500000   0.000000 )  

     reciprocal axes: (cart. coord. in units 2 pi/alat)
               b(1) = ( -1.000000 -1.000000  1.000000 )  
               b(2) = (  1.000000  1.000000  1.000000 )  
               b(3) = ( -1.000000  1.000000 -1.000000 )  


     PseudoPot. # 1 for Si read from file:
     /home/max/quantum_espresso/qe-6.1/pseudo/si_pbe_v1.uspp.F.UPF.txt
     MD5 check sum: a056efeee980c13900f22a371efd63c1
     Pseudo is Ultrasoft + core correction, Zval =  4.0
     Generated by new atomic code, or converted to UPF format
     Using radial grid of  899 points,  6 beta functions with: 
                l(1) =   0
                l(2) =   0
                l(3) =   1
                l(4) =   1
                l(5) =   2
                l(6) =   2
     Q(r) pseudized with  8 coefficients,  rinner =    0.900   0.900   0.900
                                                       0.900   0.900

     atomic species   valence    mass     pseudopotential
        Si             4.00    28.08600     Si( 1.00)

     48 Sym. Ops., with inversion, found



   Cartesian axes

     site n.     atom                  positions (alat units)
         1           Si  tau(   1) = (   0.0000000   0.0000000   0.0000000  )
         2           Si  tau(   2) = (   0.2500000   0.2500000   0.2500000  )

     number of k points=    60
                       cart. coord. in units 2pi/alat
        k(    1) = (  -0.1250000   0.1250000   0.1250000), wk =   0.0468750
        k(    2) = (   0.3750000  -0.3750000   0.6250000), wk =   0.0000000
        k(    3) = (  -0.3750000   0.3750000  -0.1250000), wk =   0.0468750
        k(    4) = (   0.1250000  -0.1250000   0.3750000), wk =   0.0000000
        k(    5) = (   0.3750000  -0.3750000   0.6250000), wk =   0.0468750
        k(    6) = (   0.8750000  -0.8750000   1.1250000), wk =   0.0000000
        k(    7) = (   0.1250000  -0.1250000   0.3750000), wk =   0.0468750
        k(    8) = (   0.6250000  -0.6250000   0.8750000), wk =   0.0000000
        k(    9) = (  -0.1250000   0.6250000   0.1250000), wk =   0.0937500
        k(   10) = (   0.3750000   0.1250000   0.6250000), wk =   0.0000000
        k(   11) = (   0.6250000  -0.1250000   0.8750000), wk =   0.0937500
        k(   12) = (   1.1250000  -0.6250000   1.3750000), wk =   0.0000000
        k(   13) = (   0.3750000   0.1250000   0.6250000), wk =   0.0937500
        k(   14) = (   0.8750000  -0.3750000   1.1250000), wk =   0.0000000
        k(   15) = (  -0.1250000  -0.8750000   0.1250000), wk =   0.0937500
        k(   16) = (   0.3750000  -1.3750000   0.6250000), wk =   0.0000000
        k(   17) = (  -0.3750000   0.3750000   0.3750000), wk =   0.0468750
        k(   18) = (   0.1250000  -0.1250000   0.8750000), wk =   0.0000000
        k(   19) = (   0.3750000  -0.3750000   1.1250000), wk =   0.0468750
        k(   20) = (   0.8750000  -0.8750000   1.6250000), wk =   0.0000000
        k(   21) = (   0.1250000  -0.1250000   0.1250000), wk =   0.0156250
        k(   22) = (   0.6250000  -0.6250000   0.6250000), wk =   0.0000000
        k(   23) = (  -0.3750000  -0.3750000  -0.1250000), wk =   0.0937500
        k(   24) = (   0.1250000  -0.8750000   0.3750000), wk =   0.0000000
        k(   25) = (  -0.1250000  -0.3750000   0.3750000), wk =   0.0468750
        k(   26) = (   0.3750000  -0.8750000   0.8750000), wk =   0.0000000
        k(   27) = (   0.3750000   0.3750000   0.6250000), wk =   0.0937500
        k(   28) = (   0.8750000  -0.1250000   1.1250000), wk =   0.0000000
        k(   29) = (   0.6250000   0.3750000  -0.3750000), wk =   0.0468750
        k(   30) = (   1.1250000  -0.1250000   0.1250000), wk =   0.0000000
        k(   31) = (   0.1250000   0.1250000   0.3750000), wk =   0.0937500
        k(   32) = (   0.6250000  -0.3750000   0.8750000), wk =   0.0000000
        k(   33) = (   0.3750000   0.1250000  -0.1250000), wk =   0.0468750
        k(   34) = (   0.8750000  -0.3750000   0.3750000), wk =   0.0000000
        k(   35) = (  -0.1250000  -0.6250000  -0.1250000), wk =   0.0468750
        k(   36) = (   0.3750000  -1.1250000   0.3750000), wk =   0.0000000
        k(   37) = (   0.1250000  -0.6250000   0.1250000), wk =   0.0468750
        k(   38) = (   0.6250000  -1.1250000   0.6250000), wk =   0.0000000
        k(   39) = (   0.6250000   0.1250000   0.8750000), wk =   0.0937500
        k(   40) = (   1.1250000  -0.3750000   1.3750000), wk =   0.0000000
        k(   41) = (  -0.8750000   0.1250000   0.6250000), wk =   0.0937500
        k(   42) = (  -0.3750000  -0.3750000   1.1250000), wk =   0.0000000
        k(   43) = (   0.8750000   0.1250000  -0.6250000), wk =   0.0937500
        k(   44) = (   1.3750000  -0.3750000  -0.1250000), wk =   0.0000000
        k(   45) = (   0.3750000  -0.1250000   0.6250000), wk =   0.0937500
        k(   46) = (   0.8750000  -0.6250000   1.1250000), wk =   0.0000000
        k(   47) = (  -0.6250000  -0.1250000   0.3750000), wk =   0.0937500
        k(   48) = (  -0.1250000  -0.6250000   0.8750000), wk =   0.0000000
        k(   49) = (   0.6250000  -0.1250000  -0.3750000), wk =   0.0937500
        k(   50) = (   1.1250000  -0.6250000   0.1250000), wk =   0.0000000
        k(   51) = (  -0.1250000   0.8750000  -0.1250000), wk =   0.0468750
        k(   52) = (   0.3750000   0.3750000   0.3750000), wk =   0.0000000
        k(   53) = (   0.1250000   0.8750000   0.1250000), wk =   0.0468750
        k(   54) = (   0.6250000   0.3750000   0.6250000), wk =   0.0000000
        k(   55) = (   0.3750000  -0.3750000   0.3750000), wk =   0.0156250
        k(   56) = (   0.8750000  -0.8750000   0.8750000), wk =   0.0000000
        k(   57) = (   0.3750000   0.3750000   1.1250000), wk =   0.0937500
        k(   58) = (   0.8750000  -0.1250000   1.6250000), wk =   0.0000000
        k(   59) = (   1.1250000   0.3750000  -0.3750000), wk =   0.0468750
        k(   60) = (   1.6250000  -0.1250000   0.1250000), wk =   0.0000000

     Dense  grid:     2837 G-vectors     FFT dimensions: (  20,  20,  20)

     Estimated max dynamical RAM per process >       0.33MB

     Estimated total allocated dynamical RAM >       1.32MB

     Check: negative/imaginary core charge=   -0.000006    0.000000

     The potential is recalculated from file :
     ./_ph0/silicon.10.343.save/charge-density.dat

     Starting wfc are    8 atomic wfcs

     Band Structure Calculation
     Davidson diagonalization with overlap

     ethr =  1.25E-10,  avg # of iterations = 11.7

     total cpu time spent up to now is        1.6 secs

     End of band structure calculation

          k =-0.1250 0.1250 0.1250 (   338 PWs)   bands (ev):

    -5.6402   4.3641   5.6728   5.6728

          k = 0.3750-0.3750 0.6250 (   361 PWs)   bands (ev):

    -3.4874  -0.6901   3.7138   4.4240

          k =-0.3750 0.3750-0.1250 (   352 PWs)   bands (ev):

    -4.6190   1.3764   3.6968   5.1915

          k = 0.1250-0.1250 0.3750 (   353 PWs)   bands (ev):

    -5.1152   2.7469   4.6689   4.7309

          k = 0.3750-0.3750 0.6250 (   361 PWs)   bands (ev):

    -3.4874  -0.6901   3.7138   4.4240

          k = 0.8750-0.8750 1.1250 (   338 PWs)   bands (ev):

    -5.6402   4.3641   5.6728   5.6728

          k = 0.1250-0.1250 0.3750 (   353 PWs)   bands (ev):

    -5.1152   2.7469   4.6689   4.7309

          k = 0.6250-0.6250 0.8750 (   352 PWs)   bands (ev):

    -4.6190   1.3764   3.6968   5.1915

          k =-0.1250 0.6250 0.1250 (   351 PWs)   bands (ev):

    -4.0886   1.0357   3.3509   3.7980

          k = 0.3750 0.1250 0.6250 (   357 PWs)   bands (ev):

    -3.6760   0.1700   2.7123   4.0729

          k = 0.6250-0.1250 0.8750 (   361 PWs)   bands (ev):

    -2.4580  -0.9210   2.0076   3.0757

          k = 1.1250-0.6250 1.3750 (   352 PWs)   bands (ev):

    -4.6190   1.3764   3.6968   5.1915

          k = 0.3750 0.1250 0.6250 (   357 PWs)   bands (ev):

    -3.6760   0.1700   2.7123   4.0729

          k = 0.8750-0.3750 1.1250 (   351 PWs)   bands (ev):

    -4.0886   1.0357   3.3509   3.7980

          k =-0.1250-0.8750 0.1250 (   358 PWs)   bands (ev):

    -2.6233  -0.8246   2.6117   3.3326

          k = 0.3750-1.3750 0.6250 (   361 PWs)   bands (ev):

    -3.4874  -0.6901   3.7138   4.4240

          k =-0.3750 0.3750 0.3750 (   353 PWs)   bands (ev):

    -4.1893   0.0952   4.8862   4.8862

          k = 0.1250-0.1250 0.8750 (   358 PWs)   bands (ev):

    -2.6233  -0.8246   2.6117   3.3326

          k = 0.3750-0.3750 1.1250 (   361 PWs)   bands (ev):

    -2.9935  -0.6134   2.0632   4.1093

          k = 0.8750-0.8750 1.6250 (   351 PWs)   bands (ev):

    -4.0886   1.0357   3.3509   3.7980

          k = 0.1250-0.1250 0.1250 (   338 PWs)   bands (ev):

    -5.6402   4.3641   5.6728   5.6728

          k = 0.6250-0.6250 0.6250 (   353 PWs)   bands (ev):

    -4.1893   0.0952   4.8862   4.8862

          k =-0.3750-0.3750-0.1250 (   352 PWs)   bands (ev):

    -4.6190   1.3764   3.6968   5.1915

          k = 0.1250-0.8750 0.3750 (   361 PWs)   bands (ev):

    -2.4580  -0.9210   2.0076   3.0757

          k =-0.1250-0.3750 0.3750 (   352 PWs)   bands (ev):

    -4.6190   1.3764   3.6968   5.1915

          k = 0.3750-0.8750 0.8750 (   351 PWs)   bands (ev):

    -4.0886   1.0357   3.3509   3.7980

          k = 0.3750 0.3750 0.6250 (   361 PWs)   bands (ev):

    -3.4874  -0.6901   3.7138   4.4240

          k = 0.8750-0.1250 1.1250 (   358 PWs)   bands (ev):

    -2.6233  -0.8246   2.6117   3.3326

          k = 0.6250 0.3750-0.3750 (   361 PWs)   bands (ev):

    -3.4874  -0.6901   3.7138   4.4240

          k = 1.1250-0.1250 0.1250 (   358 PWs)   bands (ev):

    -2.6233  -0.8246   2.6117   3.3326

          k = 0.1250 0.1250 0.3750 (   353 PWs)   bands (ev):

    -5.1152   2.7469   4.6689   4.7309

          k = 0.6250-0.3750 0.8750 (   357 PWs)   bands (ev):

    -3.6760   0.1700   2.7123   4.0729

          k = 0.3750 0.1250-0.1250 (   353 PWs)   bands (ev):

    -5.1152   2.7469   4.6689   4.7309

          k = 0.8750-0.3750 0.3750 (   361 PWs)   bands (ev):

    -2.9935  -0.6134   2.0632   4.1093

          k =-0.1250-0.6250-0.1250 (   351 PWs)   bands (ev):

    -4.0886   1.0357   3.3509   3.7980

          k = 0.3750-1.1250 0.3750 (   361 PWs)   bands (ev):

    -2.9935  -0.6134   2.0632   4.1093

          k = 0.1250-0.6250 0.1250 (   351 PWs)   bands (ev):

    -4.0886   1.0357   3.3509   3.7980

          k = 0.6250-1.1250 0.6250 (   352 PWs)   bands (ev):

    -4.6190   1.3764   3.6968   5.1915

          k = 0.6250 0.1250 0.8750 (   361 PWs)   bands (ev):

    -2.4580  -0.9210   2.0076   3.0757

          k = 1.1250-0.3750 1.3750 (   357 PWs)   bands (ev):

    -3.6760   0.1700   2.7123   4.0729

          k =-0.8750 0.1250 0.6250 (   361 PWs)   bands (ev):

    -2.4580  -0.9210   2.0076   3.0757

          k =-0.3750-0.3750 1.1250 (   361 PWs)   bands (ev):

    -2.9935  -0.6134   2.0632   4.1093

          k = 0.8750 0.1250-0.6250 (   361 PWs)   bands (ev):

    -2.4580  -0.9210   2.0076   3.0757

          k = 1.3750-0.3750-0.1250 (   357 PWs)   bands (ev):

    -3.6760   0.1700   2.7123   4.0729

          k = 0.3750-0.1250 0.6250 (   357 PWs)   bands (ev):

    -3.6760   0.1700   2.7123   4.0729

          k = 0.8750-0.6250 1.1250 (   353 PWs)   bands (ev):

    -5.1152   2.7469   4.6689   4.7309

          k =-0.6250-0.1250 0.3750 (   357 PWs)   bands (ev):

    -3.6760   0.1700   2.7123   4.0729

          k =-0.1250-0.6250 0.8750 (   361 PWs)   bands (ev):

    -2.4580  -0.9210   2.0076   3.0757

          k = 0.6250-0.1250-0.3750 (   357 PWs)   bands (ev):

    -3.6760   0.1700   2.7123   4.0729

          k = 1.1250-0.6250 0.1250 (   361 PWs)   bands (ev):

    -2.4580  -0.9210   2.0076   3.0757

          k =-0.1250 0.8750-0.1250 (   358 PWs)   bands (ev):

    -2.6233  -0.8246   2.6117   3.3326

          k = 0.3750 0.3750 0.3750 (   353 PWs)   bands (ev):

    -4.1893   0.0952   4.8862   4.8862

          k = 0.1250 0.8750 0.1250 (   358 PWs)   bands (ev):

    -2.6233  -0.8246   2.6117   3.3326

          k = 0.6250 0.3750 0.6250 (   361 PWs)   bands (ev):

    -3.4874  -0.6901   3.7138   4.4240

          k = 0.3750-0.3750 0.3750 (   353 PWs)   bands (ev):

    -4.1893   0.0952   4.8862   4.8862

          k = 0.8750-0.8750 0.8750 (   338 PWs)   bands (ev):

    -5.6402   4.3641   5.6728   5.6728

          k = 0.3750 0.3750 1.1250 (   361 PWs)   bands (ev):

    -2.9935  -0.6134   2.0632   4.1093

          k = 0.8750-0.1250 1.6250 (   361 PWs)   bands (ev):

    -2.4580  -0.9210   2.0076   3.0757

          k = 1.1250 0.3750-0.3750 (   361 PWs)   bands (ev):

    -2.9935  -0.6134   2.0632   4.1093

          k = 1.6250-0.1250 0.1250 (   353 PWs)   bands (ev):

    -5.1152   2.7469   4.6689   4.7309

     highest occupied level (ev):     5.6728

     Writing output data file silicon.10.343.save

                                                                                

     bravais-lattice index     =            2
     lattice parameter (alat)  =      10.3430  a.u.
     unit-cell volume          =     276.6175 (a.u.)^3
     number of atoms/cell      =            2
     number of atomic types    =            1
     kinetic-energy cut-off    =      18.0000  Ry
     charge density cut-off    =      72.0000  Ry
     convergence threshold     =      1.0E-12
     beta                      =       0.7000
     number of iterations used =            4
     Exchange-correlation      = SLA  PW   PBE  PBE ( 1  4  3  4 0 0)


     celldm(1)=   10.34300  celldm(2)=    0.00000  celldm(3)=    0.00000
     celldm(4)=    0.00000  celldm(5)=    0.00000  celldm(6)=    0.00000

     crystal axes: (cart. coord. in units of alat)
               a(1) = ( -0.5000  0.0000  0.5000 )  
               a(2) = (  0.0000  0.5000  0.5000 )  
               a(3) = ( -0.5000  0.5000  0.0000 )  

     reciprocal axes: (cart. coord. in units 2 pi/alat)
               b(1) = ( -1.0000 -1.0000  1.0000 )  
               b(2) = (  1.0000  1.0000  1.0000 )  
               b(3) = ( -1.0000  1.0000 -1.0000 )  


     Atoms inside the unit cell: 

     Cartesian axes

     site n.  atom      mass           positions (alat units)
        1     Si  28.0860   tau(    1) = (    0.00000    0.00000    0.00000  )
        2     Si  28.0860   tau(    2) = (    0.25000    0.25000    0.25000  )

     Computing dynamical matrix for 
                    q = (   0.5000000  -0.5000000   0.5000000 )

     13 Sym.Ops. (with q -> -q+G )


     G cutoff =  195.1038  (    710 G-vectors)     FFT grid: ( 20, 20, 20)
     number of k points=    60

     PseudoPot. # 1 for Si read from file:
     /home/max/quantum_espresso/qe-6.1/pseudo/si_pbe_v1.uspp.F.UPF.txt
     MD5 check sum: a056efeee980c13900f22a371efd63c1
     Pseudo is Ultrasoft + core correction, Zval =  4.0
     Generated by new atomic code, or converted to UPF format
     Using radial grid of  899 points,  6 beta functions with: 
                l(1) =   0
                l(2) =   0
                l(3) =   1
                l(4) =   1
                l(5) =   2
                l(6) =   2
     Q(r) pseudized with  8 coefficients,  rinner =    0.900   0.900   0.900
                                                       0.900   0.900


     Atomic displacements:
     There are   4 irreducible representations

     Representation     1      1 modes -  To be done

     Representation     2      1 modes -  To be done

     Representation     3      2 modes -  To be done

     Representation     4      2 modes -  To be done



     Alpha used in Ewald sum =   0.7000
     PHONON       :    17.28s CPU        19.05s WALL



     Representation #  1 mode #   1

     Self-consistent Calculation

      iter #   1 total cpu time :    19.2 secs   av.it.:   4.8
      thresh= 1.000E-02 alpha_mix =  0.700 |ddv_scf|^2 =  2.484E-05

      iter #   2 total cpu time :    19.4 secs   av.it.:   8.3
      thresh= 4.984E-04 alpha_mix =  0.700 |ddv_scf|^2 =  2.213E-05

      iter #   3 total cpu time :    19.5 secs   av.it.:   7.5
      thresh= 4.704E-04 alpha_mix =  0.700 |ddv_scf|^2 =  4.357E-08

      iter #   4 total cpu time :    19.7 secs   av.it.:   7.4
      thresh= 2.087E-05 alpha_mix =  0.700 |ddv_scf|^2 =  1.326E-10

      iter #   5 total cpu time :    19.8 secs   av.it.:   7.9
      thresh= 1.152E-06 alpha_mix =  0.700 |ddv_scf|^2 =  3.586E-12

      iter #   6 total cpu time :    20.0 secs   av.it.:   7.9
      thresh= 1.894E-07 alpha_mix =  0.700 |ddv_scf|^2 =  4.339E-14

     End of self-consistent calculation

     Convergence has been achieved 


     Representation #  2 mode #   2

     Self-consistent Calculation

      iter #   1 total cpu time :    20.2 secs   av.it.:   5.6
      thresh= 1.000E-02 alpha_mix =  0.700 |ddv_scf|^2 =  3.450E-04

      iter #   2 total cpu time :    20.3 secs   av.it.:   8.3
      thresh= 1.857E-03 alpha_mix =  0.700 |ddv_scf|^2 =  1.063E-03

      iter #   3 total cpu time :    20.5 secs   av.it.:   7.1
      thresh= 3.261E-03 alpha_mix =  0.700 |ddv_scf|^2 =  1.306E-07

      iter #   4 total cpu time :    20.7 secs   av.it.:   8.1
      thresh= 3.614E-05 alpha_mix =  0.700 |ddv_scf|^2 =  8.414E-09

      iter #   5 total cpu time :    21.0 secs   av.it.:   8.5
      thresh= 9.173E-06 alpha_mix =  0.700 |ddv_scf|^2 =  1.347E-10

      iter #   6 total cpu time :    21.2 secs   av.it.:   8.2
      thresh= 1.161E-06 alpha_mix =  0.700 |ddv_scf|^2 =  2.507E-12

      iter #   7 total cpu time :    21.3 secs   av.it.:   7.9
      thresh= 1.583E-07 alpha_mix =  0.700 |ddv_scf|^2 =  4.905E-15

     End of self-consistent calculation

     Convergence has been achieved 


     Representation #  3 modes #   3  4

     Self-consistent Calculation

      iter #   1 total cpu time :    21.6 secs   av.it.:   4.7
      thresh= 1.000E-02 alpha_mix =  0.700 |ddv_scf|^2 =  3.325E-07

      iter #   2 total cpu time :    21.9 secs   av.it.:   9.0
      thresh= 5.767E-05 alpha_mix =  0.700 |ddv_scf|^2 =  2.817E-08

      iter #   3 total cpu time :    22.3 secs   av.it.:   8.3
      thresh= 1.678E-05 alpha_mix =  0.700 |ddv_scf|^2 =  4.998E-10

      iter #   4 total cpu time :    22.6 secs   av.it.:   8.9
      thresh= 2.236E-06 alpha_mix =  0.700 |ddv_scf|^2 =  6.198E-12

      iter #   5 total cpu time :    23.1 secs   av.it.:   8.7
      thresh= 2.490E-07 alpha_mix =  0.700 |ddv_scf|^2 =  3.109E-14

     End of self-consistent calculation

     Convergence has been achieved 


     Representation #  4 modes #   5  6

     Self-consistent Calculation

      iter #   1 total cpu time :    23.3 secs   av.it.:   4.9
      thresh= 1.000E-02 alpha_mix =  0.700 |ddv_scf|^2 =  9.859E-07

      iter #   2 total cpu time :    23.7 secs   av.it.:   9.4
      thresh= 9.929E-05 alpha_mix =  0.700 |ddv_scf|^2 =  7.746E-08

      iter #   3 total cpu time :    24.0 secs   av.it.:   9.3
      thresh= 2.783E-05 alpha_mix =  0.700 |ddv_scf|^2 =  5.018E-09

      iter #   4 total cpu time :    24.4 secs   av.it.:   8.5
      thresh= 7.084E-06 alpha_mix =  0.700 |ddv_scf|^2 =  6.443E-12

      iter #   5 total cpu time :    24.7 secs   av.it.:   8.8
      thresh= 2.538E-07 alpha_mix =  0.700 |ddv_scf|^2 =  2.318E-14

     End of self-consistent calculation

     Convergence has been achieved 

     Number of q in the star =    4
     List of q in the star:
          1   0.500000000  -0.500000000   0.500000000
          2   0.500000000   0.500000000   0.500000000
          3  -0.500000000   0.500000000   0.500000000
          4   0.500000000   0.500000000  -0.500000000

     Diagonalizing the dynamical matrix

     q = (    0.500000000  -0.500000000   0.500000000 ) 

 **************************************************************************
     freq (    1) =       4.781335 [THz] =     159.488163 [cm-1]
     freq (    2) =       4.781335 [THz] =     159.488163 [cm-1]
     freq (    3) =      11.809580 [THz] =     393.925176 [cm-1]
     freq (    4) =      12.129759 [THz] =     404.605210 [cm-1]
     freq (    5) =      14.659770 [THz] =     488.997299 [cm-1]
     freq (    6) =      14.659770 [THz] =     488.997299 [cm-1]
 **************************************************************************

     Calculation of q =    0.0000000   0.5000000   0.0000000

   Info: using nr1, nr2, nr3 values from input

   Info: using nr1, nr2, nr3 values from input

     Parallelization info
     --------------------
     sticks:   dense  smooth     PW     G-vecs:    dense   smooth      PW
     Min          64      64     27                  709      709     175
     Max          67      67     28                  710      710     176
     Sum         265     265    109                 2837     2837     701



     bravais-lattice index     =            2
     lattice parameter (alat)  =      10.3430  a.u.
     unit-cell volume          =     276.6175 (a.u.)^3
     number of atoms/cell      =            2
     number of atomic types    =            1
     number of electrons       =         8.00
     number of Kohn-Sham states=            4
     kinetic-energy cutoff     =      18.0000  Ry
     charge density cutoff     =      72.0000  Ry
     Exchange-correlation      = SLA  PW   PBE  PBE ( 1  4  3  4 0 0)

     celldm(1)=  10.343000  celldm(2)=   0.000000  celldm(3)=   0.000000
     celldm(4)=   0.000000  celldm(5)=   0.000000  celldm(6)=   0.000000

     crystal axes: (cart. coord. in units of alat)
               a(1) = (  -0.500000   0.000000   0.500000 )  
               a(2) = (   0.000000   0.500000   0.500000 )  
               a(3) = (  -0.500000   0.500000   0.000000 )  

     reciprocal axes: (cart. coord. in units 2 pi/alat)
               b(1) = ( -1.000000 -1.000000  1.000000 )  
               b(2) = (  1.000000  1.000000  1.000000 )  
               b(3) = ( -1.000000  1.000000 -1.000000 )  


     PseudoPot. # 1 for Si read from file:
     /home/max/quantum_espresso/qe-6.1/pseudo/si_pbe_v1.uspp.F.UPF.txt
     MD5 check sum: a056efeee980c13900f22a371efd63c1
     Pseudo is Ultrasoft + core correction, Zval =  4.0
     Generated by new atomic code, or converted to UPF format
     Using radial grid of  899 points,  6 beta functions with: 
                l(1) =   0
                l(2) =   0
                l(3) =   1
                l(4) =   1
                l(5) =   2
                l(6) =   2
     Q(r) pseudized with  8 coefficients,  rinner =    0.900   0.900   0.900
                                                       0.900   0.900

     atomic species   valence    mass     pseudopotential
        Si             4.00    28.08600     Si( 1.00)

     48 Sym. Ops., with inversion, found



   Cartesian axes

     site n.     atom                  positions (alat units)
         1           Si  tau(   1) = (   0.0000000   0.0000000   0.0000000  )
         2           Si  tau(   2) = (   0.2500000   0.2500000   0.2500000  )

     number of k points=    80
                       cart. coord. in units 2pi/alat
        k(    1) = (  -0.1250000   0.1250000   0.1250000), wk =   0.0312500
        k(    2) = (  -0.1250000   0.6250000   0.1250000), wk =   0.0000000
        k(    3) = (  -0.3750000   0.3750000  -0.1250000), wk =   0.0625000
        k(    4) = (  -0.3750000   0.8750000  -0.1250000), wk =   0.0000000
        k(    5) = (   0.3750000  -0.3750000   0.6250000), wk =   0.0625000
        k(    6) = (   0.3750000   0.1250000   0.6250000), wk =   0.0000000
        k(    7) = (   0.1250000  -0.1250000   0.3750000), wk =   0.0625000
        k(    8) = (   0.1250000   0.3750000   0.3750000), wk =   0.0000000
        k(    9) = (  -0.1250000   0.6250000   0.1250000), wk =   0.0312500
        k(   10) = (  -0.1250000   1.1250000   0.1250000), wk =   0.0000000
        k(   11) = (   0.6250000  -0.1250000   0.8750000), wk =   0.0625000
        k(   12) = (   0.6250000   0.3750000   0.8750000), wk =   0.0000000
        k(   13) = (   0.3750000   0.1250000   0.6250000), wk =   0.0625000
        k(   14) = (   0.3750000   0.6250000   0.6250000), wk =   0.0000000
        k(   15) = (  -0.1250000  -0.8750000   0.1250000), wk =   0.0312500
        k(   16) = (  -0.1250000  -0.3750000   0.1250000), wk =   0.0000000
        k(   17) = (  -0.3750000   0.3750000   0.3750000), wk =   0.0312500
        k(   18) = (  -0.3750000   0.8750000   0.3750000), wk =   0.0000000
        k(   19) = (   0.3750000  -0.3750000   1.1250000), wk =   0.0625000
        k(   20) = (   0.3750000   0.1250000   1.1250000), wk =   0.0000000
        k(   21) = (  -0.1250000  -0.1250000   0.1250000), wk =   0.0312500
        k(   22) = (  -0.1250000   0.3750000   0.1250000), wk =   0.0000000
        k(   23) = (   0.1250000  -0.3750000   0.3750000), wk =   0.0625000
        k(   24) = (   0.1250000   0.1250000   0.3750000), wk =   0.0000000
        k(   25) = (   0.3750000  -0.1250000   0.3750000), wk =   0.0312500
        k(   26) = (   0.3750000   0.3750000   0.3750000), wk =   0.0000000
        k(   27) = (   0.3750000   0.1250000   0.3750000), wk =   0.0312500
        k(   28) = (   0.3750000   0.6250000   0.3750000), wk =   0.0000000
        k(   29) = (  -0.6250000   0.3750000  -0.3750000), wk =   0.0625000
        k(   30) = (  -0.6250000   0.8750000  -0.3750000), wk =   0.0000000
        k(   31) = (  -0.3750000   0.6250000  -0.3750000), wk =   0.0312500
        k(   32) = (  -0.3750000   1.1250000  -0.3750000), wk =   0.0000000
        k(   33) = (  -0.3750000  -0.6250000  -0.3750000), wk =   0.0312500
        k(   34) = (  -0.3750000  -0.1250000  -0.3750000), wk =   0.0000000
        k(   35) = (  -0.3750000   0.1250000  -0.1250000), wk =   0.0625000
        k(   36) = (  -0.3750000   0.6250000  -0.1250000), wk =   0.0000000
        k(   37) = (  -0.1250000   0.3750000  -0.1250000), wk =   0.0312500
        k(   38) = (  -0.1250000   0.8750000  -0.1250000), wk =   0.0000000
        k(   39) = (  -0.1250000  -0.3750000  -0.1250000), wk =   0.0312500
        k(   40) = (  -0.1250000   0.1250000  -0.1250000), wk =   0.0000000
        k(   41) = (  -0.1250000  -0.6250000   0.1250000), wk =   0.0312500
        k(   42) = (  -0.1250000  -0.1250000   0.1250000), wk =   0.0000000
        k(   43) = (   0.6250000  -0.1250000  -0.1250000), wk =   0.0625000
        k(   44) = (   0.6250000   0.3750000  -0.1250000), wk =   0.0000000
        k(   45) = (   0.6250000   0.1250000   0.1250000), wk =   0.0625000
        k(   46) = (   0.6250000   0.6250000   0.1250000), wk =   0.0000000
        k(   47) = (  -0.8750000   0.1250000  -0.6250000), wk =   0.0625000
        k(   48) = (  -0.8750000   0.6250000  -0.6250000), wk =   0.0000000
        k(   49) = (  -0.1250000   0.6250000  -0.8750000), wk =   0.0625000
        k(   50) = (  -0.1250000   1.1250000  -0.8750000), wk =   0.0000000
        k(   51) = (  -0.1250000   0.8750000  -0.6250000), wk =   0.0625000
        k(   52) = (  -0.1250000   1.3750000  -0.6250000), wk =   0.0000000
        k(   53) = (  -0.1250000  -0.8750000  -0.6250000), wk =   0.0625000
        k(   54) = (  -0.1250000  -0.3750000  -0.6250000), wk =   0.0000000
        k(   55) = (   0.8750000  -0.6250000   0.1250000), wk =   0.0625000
        k(   56) = (   0.8750000  -0.1250000   0.1250000), wk =   0.0000000
        k(   57) = (  -0.6250000  -0.1250000  -0.3750000), wk =   0.0625000
        k(   58) = (  -0.6250000   0.3750000  -0.3750000), wk =   0.0000000
        k(   59) = (   0.1250000   0.3750000  -0.6250000), wk =   0.0625000
        k(   60) = (   0.1250000   0.8750000  -0.6250000), wk =   0.0000000
        k(   61) = (   0.1250000   0.6250000  -0.3750000), wk =   0.0625000
        k(   62) = (   0.1250000   1.1250000  -0.3750000), wk =   0.0000000
        k(   63) = (   0.1250000  -0.6250000  -0.3750000), wk =   0.0625000
        k(   64) = (   0.1250000  -0.1250000  -0.3750000), wk =   0.0000000
        k(   65) = (   0.6250000  -0.3750000  -0.1250000), wk =   0.0625000
        k(   66) = (   0.6250000   0.1250000  -0.1250000), wk =   0.0000000
        k(   67) = (  -0.1250000   0.8750000   0.1250000), wk =   0.0312500
        k(   68) = (  -0.1250000   1.3750000   0.1250000), wk =   0.0000000
        k(   69) = (  -0.8750000  -0.1250000  -0.1250000), wk =   0.0625000
        k(   70) = (  -0.8750000   0.3750000  -0.1250000), wk =   0.0000000
        k(   71) = (  -0.8750000   0.1250000   0.1250000), wk =   0.0625000
        k(   72) = (  -0.8750000   0.6250000   0.1250000), wk =   0.0000000
        k(   73) = (  -0.3750000  -0.3750000   0.3750000), wk =   0.0312500
        k(   74) = (  -0.3750000   0.1250000   0.3750000), wk =   0.0000000
        k(   75) = (  -1.1250000   0.3750000  -0.3750000), wk =   0.0625000
        k(   76) = (  -1.1250000   0.8750000  -0.3750000), wk =   0.0000000
        k(   77) = (  -0.3750000   1.1250000  -0.3750000), wk =   0.0312500
        k(   78) = (  -0.3750000   1.6250000  -0.3750000), wk =   0.0000000
        k(   79) = (  -0.3750000  -1.1250000  -0.3750000), wk =   0.0312500
        k(   80) = (  -0.3750000  -0.6250000  -0.3750000), wk =   0.0000000

     Dense  grid:     2837 G-vectors     FFT dimensions: (  20,  20,  20)

     Estimated max dynamical RAM per process >       0.33MB

     Estimated total allocated dynamical RAM >       1.32MB

     Check: negative/imaginary core charge=   -0.000006    0.000000

     The potential is recalculated from file :
     ./_ph0/silicon.10.343.save/charge-density.dat

     Starting wfc are    8 atomic wfcs

     Band Structure Calculation
     Davidson diagonalization with overlap

     ethr =  1.25E-10,  avg # of iterations = 11.7

     total cpu time spent up to now is        2.5 secs

     End of band structure calculation

          k =-0.1250 0.1250 0.1250 (   338 PWs)   bands (ev):

    -5.6402   4.3641   5.6728   5.6728

          k =-0.1250 0.6250 0.1250 (   351 PWs)   bands (ev):

    -4.0886   1.0357   3.3509   3.7980

          k =-0.3750 0.3750-0.1250 (   352 PWs)   bands (ev):

    -4.6190   1.3764   3.6968   5.1915

          k =-0.3750 0.8750-0.1250 (   361 PWs)   bands (ev):

    -2.4580  -0.9210   2.0076   3.0757

          k = 0.3750-0.3750 0.6250 (   361 PWs)   bands (ev):

    -3.4874  -0.6901   3.7138   4.4240

          k = 0.3750 0.1250 0.6250 (   357 PWs)   bands (ev):

    -3.6760   0.1700   2.7123   4.0729

          k = 0.1250-0.1250 0.3750 (   353 PWs)   bands (ev):

    -5.1152   2.7469   4.6689   4.7309

          k = 0.1250 0.3750 0.3750 (   352 PWs)   bands (ev):

    -4.6190   1.3764   3.6968   5.1915

          k =-0.1250 0.6250 0.1250 (   351 PWs)   bands (ev):

    -4.0886   1.0357   3.3509   3.7980

          k =-0.1250 1.1250 0.1250 (   358 PWs)   bands (ev):

    -2.6233  -0.8246   2.6117   3.3326

          k = 0.6250-0.1250 0.8750 (   361 PWs)   bands (ev):

    -2.4580  -0.9210   2.0076   3.0757

          k = 0.6250 0.3750 0.8750 (   357 PWs)   bands (ev):

    -3.6760   0.1700   2.7123   4.0729

          k = 0.3750 0.1250 0.6250 (   357 PWs)   bands (ev):

    -3.6760   0.1700   2.7123   4.0729

          k = 0.3750 0.6250 0.6250 (   361 PWs)   bands (ev):

    -3.4874  -0.6901   3.7138   4.4240

          k =-0.1250-0.8750 0.1250 (   358 PWs)   bands (ev):

    -2.6233  -0.8246   2.6117   3.3326

          k =-0.1250-0.3750 0.1250 (   353 PWs)   bands (ev):

    -5.1152   2.7469   4.6689   4.7309

          k =-0.3750 0.3750 0.3750 (   353 PWs)   bands (ev):

    -4.1893   0.0952   4.8862   4.8862

          k =-0.3750 0.8750 0.3750 (   361 PWs)   bands (ev):

    -2.9935  -0.6134   2.0632   4.1093

          k = 0.3750-0.3750 1.1250 (   361 PWs)   bands (ev):

    -2.9935  -0.6134   2.0632   4.1093

          k = 0.3750 0.1250 1.1250 (   361 PWs)   bands (ev):

    -2.4580  -0.9210   2.0076   3.0757

          k =-0.1250-0.1250 0.1250 (   338 PWs)   bands (ev):

    -5.6402   4.3641   5.6728   5.6728

          k =-0.1250 0.3750 0.1250 (   353 PWs)   bands (ev):

    -5.1152   2.7469   4.6689   4.7309

          k = 0.1250-0.3750 0.3750 (   352 PWs)   bands (ev):

    -4.6190   1.3764   3.6968   5.1915

          k = 0.1250 0.1250 0.3750 (   353 PWs)   bands (ev):

    -5.1152   2.7469   4.6689   4.7309

          k = 0.3750-0.1250 0.3750 (   352 PWs)   bands (ev):

    -4.6190   1.3764   3.6968   5.1915

          k = 0.3750 0.3750 0.3750 (   353 PWs)   bands (ev):

    -4.1893   0.0952   4.8862   4.8862

          k = 0.3750 0.1250 0.3750 (   352 PWs)   bands (ev):

    -4.6190   1.3764   3.6968   5.1915

          k = 0.3750 0.6250 0.3750 (   361 PWs)   bands (ev):

    -3.4874  -0.6901   3.7138   4.4240

          k =-0.6250 0.3750-0.3750 (   361 PWs)   bands (ev):

    -3.4874  -0.6901   3.7138   4.4240

          k =-0.6250 0.8750-0.3750 (   357 PWs)   bands (ev):

    -3.6760   0.1700   2.7123   4.0729

          k =-0.3750 0.6250-0.3750 (   361 PWs)   bands (ev):

    -3.4874  -0.6901   3.7138   4.4240

          k =-0.3750 1.1250-0.3750 (   361 PWs)   bands (ev):

    -2.9935  -0.6134   2.0632   4.1093

          k =-0.3750-0.6250-0.3750 (   361 PWs)   bands (ev):

    -3.4874  -0.6901   3.7138   4.4240

          k =-0.3750-0.1250-0.3750 (   352 PWs)   bands (ev):

    -4.6190   1.3764   3.6968   5.1915

          k =-0.3750 0.1250-0.1250 (   353 PWs)   bands (ev):

    -5.1152   2.7469   4.6689   4.7309

          k =-0.3750 0.6250-0.1250 (   357 PWs)   bands (ev):

    -3.6760   0.1700   2.7123   4.0729

          k =-0.1250 0.3750-0.1250 (   353 PWs)   bands (ev):

    -5.1152   2.7469   4.6689   4.7309

          k =-0.1250 0.8750-0.1250 (   358 PWs)   bands (ev):

    -2.6233  -0.8246   2.6117   3.3326

          k =-0.1250-0.3750-0.1250 (   353 PWs)   bands (ev):

    -5.1152   2.7469   4.6689   4.7309

          k =-0.1250 0.1250-0.1250 (   338 PWs)   bands (ev):

    -5.6402   4.3641   5.6728   5.6728

          k =-0.1250-0.6250 0.1250 (   351 PWs)   bands (ev):

    -4.0886   1.0357   3.3509   3.7980

          k =-0.1250-0.1250 0.1250 (   338 PWs)   bands (ev):

    -5.6402   4.3641   5.6728   5.6728

          k = 0.6250-0.1250-0.1250 (   351 PWs)   bands (ev):

    -4.0886   1.0357   3.3509   3.7980

          k = 0.6250 0.3750-0.1250 (   357 PWs)   bands (ev):

    -3.6760   0.1700   2.7123   4.0729

          k = 0.6250 0.1250 0.1250 (   351 PWs)   bands (ev):

    -4.0886   1.0357   3.3509   3.7980

          k = 0.6250 0.6250 0.1250 (   361 PWs)   bands (ev):

    -2.9935  -0.6134   2.0632   4.1093

          k =-0.8750 0.1250-0.6250 (   361 PWs)   bands (ev):

    -2.4580  -0.9210   2.0076   3.0757

          k =-0.8750 0.6250-0.6250 (   352 PWs)   bands (ev):

    -4.6190   1.3764   3.6968   5.1915

          k =-0.1250 0.6250-0.8750 (   361 PWs)   bands (ev):

    -2.4580  -0.9210   2.0076   3.0757

          k =-0.1250 1.1250-0.8750 (   358 PWs)   bands (ev):

    -2.6233  -0.8246   2.6117   3.3326

          k =-0.1250 0.8750-0.6250 (   361 PWs)   bands (ev):

    -2.4580  -0.9210   2.0076   3.0757

          k =-0.1250 1.3750-0.6250 (   361 PWs)   bands (ev):

    -2.9935  -0.6134   2.0632   4.1093

          k =-0.1250-0.8750-0.6250 (   361 PWs)   bands (ev):

    -2.4580  -0.9210   2.0076   3.0757

          k =-0.1250-0.3750-0.6250 (   357 PWs)   bands (ev):

    -3.6760   0.1700   2.7123   4.0729

          k = 0.8750-0.6250 0.1250 (   361 PWs)   bands (ev):

    -2.4580  -0.9210   2.0076   3.0757

          k = 0.8750-0.1250 0.1250 (   358 PWs)   bands (ev):

    -2.6233  -0.8246   2.6117   3.3326

          k =-0.6250-0.1250-0.3750 (   357 PWs)   bands (ev):

    -3.6760   0.1700   2.7123   4.0729

          k =-0.6250 0.3750-0.3750 (   361 PWs)   bands (ev):

    -3.4874  -0.6901   3.7138   4.4240

          k = 0.1250 0.3750-0.6250 (   357 PWs)   bands (ev):

    -3.6760   0.1700   2.7123   4.0729

          k = 0.1250 0.8750-0.6250 (   361 PWs)   bands (ev):

    -2.4580  -0.9210   2.0076   3.0757

          k = 0.1250 0.6250-0.3750 (   357 PWs)   bands (ev):

    -3.6760   0.1700   2.7123   4.0729

          k = 0.1250 1.1250-0.3750 (   361 PWs)   bands (ev):

    -2.4580  -0.9210   2.0076   3.0757

          k = 0.1250-0.6250-0.3750 (   357 PWs)   bands (ev):

    -3.6760   0.1700   2.7123   4.0729

          k = 0.1250-0.1250-0.3750 (   353 PWs)   bands (ev):

    -5.1152   2.7469   4.6689   4.7309

          k = 0.6250-0.3750-0.1250 (   357 PWs)   bands (ev):

    -3.6760   0.1700   2.7123   4.0729

          k = 0.6250 0.1250-0.1250 (   351 PWs)   bands (ev):

    -4.0886   1.0357   3.3509   3.7980

          k =-0.1250 0.8750 0.1250 (   358 PWs)   bands (ev):

    -2.6233  -0.8246   2.6117   3.3326

          k =-0.1250 1.3750 0.1250 (   351 PWs)   bands (ev):

    -4.0886   1.0357   3.3509   3.7980

          k =-0.8750-0.1250-0.1250 (   358 PWs)   bands (ev):

    -2.6233  -0.8246   2.6117   3.3326

          k =-0.8750 0.3750-0.1250 (   361 PWs)   bands (ev):

    -2.4580  -0.9210   2.0076   3.0757

          k =-0.8750 0.1250 0.1250 (   358 PWs)   bands (ev):

    -2.6233  -0.8246   2.6117   3.3326

          k =-0.8750 0.6250 0.1250 (   361 PWs)   bands (ev):

    -2.4580  -0.9210   2.0076   3.0757

          k =-0.3750-0.3750 0.3750 (   353 PWs)   bands (ev):

    -4.1893   0.0952   4.8862   4.8862

          k =-0.3750 0.1250 0.3750 (   352 PWs)   bands (ev):

    -4.6190   1.3764   3.6968   5.1915

          k =-1.1250 0.3750-0.3750 (   361 PWs)   bands (ev):

    -2.9935  -0.6134   2.0632   4.1093

          k =-1.1250 0.8750-0.3750 (   351 PWs)   bands (ev):

    -4.0886   1.0357   3.3509   3.7980

          k =-0.3750 1.1250-0.3750 (   361 PWs)   bands (ev):

    -2.9935  -0.6134   2.0632   4.1093

          k =-0.3750 1.6250-0.3750 (   353 PWs)   bands (ev):

    -4.1893   0.0952   4.8862   4.8862

          k =-0.3750-1.1250-0.3750 (   361 PWs)   bands (ev):

    -2.9935  -0.6134   2.0632   4.1093

          k =-0.3750-0.6250-0.3750 (   361 PWs)   bands (ev):

    -3.4874  -0.6901   3.7138   4.4240

     highest occupied level (ev):     5.6728

     Writing output data file silicon.10.343.save

                                                                                

     bravais-lattice index     =            2
     lattice parameter (alat)  =      10.3430  a.u.
     unit-cell volume          =     276.6175 (a.u.)^3
     number of atoms/cell      =            2
     number of atomic types    =            1
     kinetic-energy cut-off    =      18.0000  Ry
     charge density cut-off    =      72.0000  Ry
     convergence threshold     =      1.0E-12
     beta                      =       0.7000
     number of iterations used =            4
     Exchange-correlation      = SLA  PW   PBE  PBE ( 1  4  3  4 0 0)


     celldm(1)=   10.34300  celldm(2)=    0.00000  celldm(3)=    0.00000
     celldm(4)=    0.00000  celldm(5)=    0.00000  celldm(6)=    0.00000

     crystal axes: (cart. coord. in units of alat)
               a(1) = ( -0.5000  0.0000  0.5000 )  
               a(2) = (  0.0000  0.5000  0.5000 )  
               a(3) = ( -0.5000  0.5000  0.0000 )  

     reciprocal axes: (cart. coord. in units 2 pi/alat)
               b(1) = ( -1.0000 -1.0000  1.0000 )  
               b(2) = (  1.0000  1.0000  1.0000 )  
               b(3) = ( -1.0000  1.0000 -1.0000 )  


     Atoms inside the unit cell: 

     Cartesian axes

     site n.  atom      mass           positions (alat units)
        1     Si  28.0860   tau(    1) = (    0.00000    0.00000    0.00000  )
        2     Si  28.0860   tau(    2) = (    0.25000    0.25000    0.25000  )

     Computing dynamical matrix for 
                    q = (   0.0000000   0.5000000   0.0000000 )

      8 Sym.Ops. (no q -> -q+G )


     G cutoff =  195.1038  (    710 G-vectors)     FFT grid: ( 20, 20, 20)
     number of k points=    80

     PseudoPot. # 1 for Si read from file:
     /home/max/quantum_espresso/qe-6.1/pseudo/si_pbe_v1.uspp.F.UPF.txt
     MD5 check sum: a056efeee980c13900f22a371efd63c1
     Pseudo is Ultrasoft + core correction, Zval =  4.0
     Generated by new atomic code, or converted to UPF format
     Using radial grid of  899 points,  6 beta functions with: 
                l(1) =   0
                l(2) =   0
                l(3) =   1
                l(4) =   1
                l(5) =   2
                l(6) =   2
     Q(r) pseudized with  8 coefficients,  rinner =    0.900   0.900   0.900
                                                       0.900   0.900

     Mode symmetry, C_4v (4mm)  point group:


     Atomic displacements:
     There are   4 irreducible representations

     Representation     1      1 modes -A_1  G_1 D_1  To be done

     Representation     2      1 modes -B_2  G_4 D_2'  To be done

     Representation     3      2 modes -E    G_5 D_5  To be done

     Representation     4      2 modes -E    G_5 D_5  To be done



     Alpha used in Ewald sum =   0.7000
     PHONON       :    23.49s CPU        25.81s WALL



     Representation #  1 mode #   1

     Self-consistent Calculation

      iter #   1 total cpu time :    26.0 secs   av.it.:   5.8
      thresh= 1.000E-02 alpha_mix =  0.700 |ddv_scf|^2 =  2.965E-03

      iter #   2 total cpu time :    26.2 secs   av.it.:   7.7
      thresh= 5.446E-03 alpha_mix =  0.700 |ddv_scf|^2 =  3.906E-02

      iter #   3 total cpu time :    26.4 secs   av.it.:   6.7
      thresh= 1.000E-02 alpha_mix =  0.700 |ddv_scf|^2 =  1.491E-07

      iter #   4 total cpu time :    26.6 secs   av.it.:   8.1
      thresh= 3.862E-05 alpha_mix =  0.700 |ddv_scf|^2 =  1.416E-08

      iter #   5 total cpu time :    26.8 secs   av.it.:   7.7
      thresh= 1.190E-05 alpha_mix =  0.700 |ddv_scf|^2 =  7.276E-10

      iter #   6 total cpu time :    27.1 secs   av.it.:   7.9
      thresh= 2.697E-06 alpha_mix =  0.700 |ddv_scf|^2 =  2.941E-12

      iter #   7 total cpu time :    27.4 secs   av.it.:   7.9
      thresh= 1.715E-07 alpha_mix =  0.700 |ddv_scf|^2 =  5.578E-13

     End of self-consistent calculation

     Convergence has been achieved 


     Representation #  2 mode #   2

     Self-consistent Calculation

      iter #   1 total cpu time :    27.5 secs   av.it.:   4.9
      thresh= 1.000E-02 alpha_mix =  0.700 |ddv_scf|^2 =  5.509E-06

      iter #   2 total cpu time :    27.8 secs   av.it.:   8.7
      thresh= 2.347E-04 alpha_mix =  0.700 |ddv_scf|^2 =  1.341E-06

      iter #   3 total cpu time :    28.0 secs   av.it.:   8.5
      thresh= 1.158E-04 alpha_mix =  0.700 |ddv_scf|^2 =  4.277E-08

      iter #   4 total cpu time :    28.2 secs   av.it.:   8.2
      thresh= 2.068E-05 alpha_mix =  0.700 |ddv_scf|^2 =  7.195E-10

      iter #   5 total cpu time :    28.4 secs   av.it.:   8.6
      thresh= 2.682E-06 alpha_mix =  0.700 |ddv_scf|^2 =  6.867E-12

      iter #   6 total cpu time :    28.6 secs   av.it.:   8.0
      thresh= 2.620E-07 alpha_mix =  0.700 |ddv_scf|^2 =  7.411E-14

     End of self-consistent calculation

     Convergence has been achieved 


     Representation #  3 modes #   3  4

     Self-consistent Calculation

      iter #   1 total cpu time :    29.1 secs   av.it.:   5.0
      thresh= 1.000E-02 alpha_mix =  0.700 |ddv_scf|^2 =  1.022E-06

      iter #   2 total cpu time :    29.6 secs   av.it.:   9.7
      thresh= 1.011E-04 alpha_mix =  0.700 |ddv_scf|^2 =  1.268E-07

      iter #   3 total cpu time :    30.1 secs   av.it.:   9.5
      thresh= 3.562E-05 alpha_mix =  0.700 |ddv_scf|^2 =  6.710E-09

      iter #   4 total cpu time :    30.5 secs   av.it.:   8.8
      thresh= 8.192E-06 alpha_mix =  0.700 |ddv_scf|^2 =  9.531E-12

      iter #   5 total cpu time :    31.1 secs   av.it.:   9.1
      thresh= 3.087E-07 alpha_mix =  0.700 |ddv_scf|^2 =  2.992E-13

     End of self-consistent calculation

     Convergence has been achieved 


     Representation #  4 modes #   5  6

     Self-consistent Calculation

      iter #   1 total cpu time :    31.5 secs   av.it.:   5.0
      thresh= 1.000E-02 alpha_mix =  0.700 |ddv_scf|^2 =  9.385E-07

      iter #   2 total cpu time :    32.0 secs   av.it.:   9.8
      thresh= 9.687E-05 alpha_mix =  0.700 |ddv_scf|^2 =  1.188E-07

      iter #   3 total cpu time :    32.4 secs   av.it.:   9.4
      thresh= 3.446E-05 alpha_mix =  0.700 |ddv_scf|^2 =  7.019E-09

      iter #   4 total cpu time :    33.0 secs   av.it.:   8.9
      thresh= 8.378E-06 alpha_mix =  0.700 |ddv_scf|^2 =  1.483E-11

      iter #   5 total cpu time :    33.5 secs   av.it.:   9.2
      thresh= 3.851E-07 alpha_mix =  0.700 |ddv_scf|^2 =  4.426E-14

     End of self-consistent calculation

     Convergence has been achieved 

     Number of q in the star =    6
     List of q in the star:
          1   0.000000000   0.500000000   0.000000000
          2   0.000000000  -0.500000000   0.000000000
          3   0.500000000   0.000000000   0.000000000
          4   0.000000000   0.000000000   0.500000000
          5   0.000000000   0.000000000  -0.500000000
          6  -0.500000000   0.000000000   0.000000000

     Diagonalizing the dynamical matrix

     q = (    0.000000000   0.500000000   0.000000000 ) 

 **************************************************************************
     freq (    1) =       4.298470 [THz] =     143.381522 [cm-1]
     freq (    2) =       4.298470 [THz] =     143.381522 [cm-1]
     freq (    3) =       7.147260 [THz] =     238.406921 [cm-1]
     freq (    4) =      14.035267 [THz] =     468.166101 [cm-1]
     freq (    5) =      14.035267 [THz] =     468.166101 [cm-1]
     freq (    6) =      14.665558 [THz] =     489.190371 [cm-1]
 **************************************************************************

     Mode symmetry, C_4v (4mm)  point group:

     freq (  1 -  2) =        143.4  [cm-1]   --> E    G_5 D_5       
     freq (  3 -  3) =        238.4  [cm-1]   --> A_1  G_1 D_1       
     freq (  4 -  5) =        468.2  [cm-1]   --> E    G_5 D_5       
     freq (  6 -  6) =        489.2  [cm-1]   --> B_2  G_4 D_2'      

     Calculation of q =    0.7500000  -0.2500000   0.7500000

   Info: using nr1, nr2, nr3 values from input

   Info: using nr1, nr2, nr3 values from input

     Parallelization info
     --------------------
     sticks:   dense  smooth     PW     G-vecs:    dense   smooth      PW
     Min          64      64     30                  709      709     216
     Max          67      67     31                  710      710     218
     Sum         265     265    121                 2837     2837     869



     bravais-lattice index     =            2
     lattice parameter (alat)  =      10.3430  a.u.
     unit-cell volume          =     276.6175 (a.u.)^3
     number of atoms/cell      =            2
     number of atomic types    =            1
     number of electrons       =         8.00
     number of Kohn-Sham states=            4
     kinetic-energy cutoff     =      18.0000  Ry
     charge density cutoff     =      72.0000  Ry
     Exchange-correlation      = SLA  PW   PBE  PBE ( 1  4  3  4 0 0)

     celldm(1)=  10.343000  celldm(2)=   0.000000  celldm(3)=   0.000000
     celldm(4)=   0.000000  celldm(5)=   0.000000  celldm(6)=   0.000000

     crystal axes: (cart. coord. in units of alat)
               a(1) = (  -0.500000   0.000000   0.500000 )  
               a(2) = (   0.000000   0.500000   0.500000 )  
               a(3) = (  -0.500000   0.500000   0.000000 )  

     reciprocal axes: (cart. coord. in units 2 pi/alat)
               b(1) = ( -1.000000 -1.000000  1.000000 )  
               b(2) = (  1.000000  1.000000  1.000000 )  
               b(3) = ( -1.000000  1.000000 -1.000000 )  


     PseudoPot. # 1 for Si read from file:
     /home/max/quantum_espresso/qe-6.1/pseudo/si_pbe_v1.uspp.F.UPF.txt
     MD5 check sum: a056efeee980c13900f22a371efd63c1
     Pseudo is Ultrasoft + core correction, Zval =  4.0
     Generated by new atomic code, or converted to UPF format
     Using radial grid of  899 points,  6 beta functions with: 
                l(1) =   0
                l(2) =   0
                l(3) =   1
                l(4) =   1
                l(5) =   2
                l(6) =   2
     Q(r) pseudized with  8 coefficients,  rinner =    0.900   0.900   0.900
                                                       0.900   0.900

     atomic species   valence    mass     pseudopotential
        Si             4.00    28.08600     Si( 1.00)

     48 Sym. Ops., with inversion, found



   Cartesian axes

     site n.     atom                  positions (alat units)
         1           Si  tau(   1) = (   0.0000000   0.0000000   0.0000000  )
         2           Si  tau(   2) = (   0.2500000   0.2500000   0.2500000  )

     number of k points=   288

     Number of k-points >= 100: set verbosity='high' to print them.

     Dense  grid:     2837 G-vectors     FFT dimensions: (  20,  20,  20)

     Estimated max dynamical RAM per process >       0.33MB

     Estimated total allocated dynamical RAM >       1.32MB

     Check: negative/imaginary core charge=   -0.000006    0.000000

     The potential is recalculated from file :
     ./_ph0/silicon.10.343.save/charge-density.dat

     Starting wfc are    8 atomic wfcs

     Band Structure Calculation
     Davidson diagonalization with overlap

     ethr =  1.25E-10,  avg # of iterations = 11.6

     total cpu time spent up to now is        4.7 secs

     End of band structure calculation

     Number of k-points >= 100: set verbosity='high' to print the bands.

     highest occupied level (ev):     5.6728

     Writing output data file silicon.10.343.save

                                                                                

     bravais-lattice index     =            2
     lattice parameter (alat)  =      10.3430  a.u.
     unit-cell volume          =     276.6175 (a.u.)^3
     number of atoms/cell      =            2
     number of atomic types    =            1
     kinetic-energy cut-off    =      18.0000  Ry
     charge density cut-off    =      72.0000  Ry
     convergence threshold     =      1.0E-12
     beta                      =       0.7000
     number of iterations used =            4
     Exchange-correlation      = SLA  PW   PBE  PBE ( 1  4  3  4 0 0)


     celldm(1)=   10.34300  celldm(2)=    0.00000  celldm(3)=    0.00000
     celldm(4)=    0.00000  celldm(5)=    0.00000  celldm(6)=    0.00000

     crystal axes: (cart. coord. in units of alat)
               a(1) = ( -0.5000  0.0000  0.5000 )  
               a(2) = (  0.0000  0.5000  0.5000 )  
               a(3) = ( -0.5000  0.5000  0.0000 )  

     reciprocal axes: (cart. coord. in units 2 pi/alat)
               b(1) = ( -1.0000 -1.0000  1.0000 )  
               b(2) = (  1.0000  1.0000  1.0000 )  
               b(3) = ( -1.0000  1.0000 -1.0000 )  


     Atoms inside the unit cell: 

     Cartesian axes

     site n.  atom      mass           positions (alat units)
        1     Si  28.0860   tau(    1) = (    0.00000    0.00000    0.00000  )
        2     Si  28.0860   tau(    2) = (    0.25000    0.25000    0.25000  )

     Computing dynamical matrix for 
                    q = (   0.7500000  -0.2500000   0.7500000 )

      2 Sym.Ops. (no q -> -q+G )


     G cutoff =  195.1038  (    710 G-vectors)     FFT grid: ( 20, 20, 20)
     number of k points=   288

     PseudoPot. # 1 for Si read from file:
     /home/max/quantum_espresso/qe-6.1/pseudo/si_pbe_v1.uspp.F.UPF.txt
     MD5 check sum: a056efeee980c13900f22a371efd63c1
     Pseudo is Ultrasoft + core correction, Zval =  4.0
     Generated by new atomic code, or converted to UPF format
     Using radial grid of  899 points,  6 beta functions with: 
                l(1) =   0
                l(2) =   0
                l(3) =   1
                l(4) =   1
                l(5) =   2
                l(6) =   2
     Q(r) pseudized with  8 coefficients,  rinner =    0.900   0.900   0.900
                                                       0.900   0.900

     Mode symmetry, C_s (m)     point group:


     Atomic displacements:
     There are   6 irreducible representations

     Representation     1      1 modes -A'  To be done

     Representation     2      1 modes -A'  To be done

     Representation     3      1 modes -A'  To be done

     Representation     4      1 modes -A'  To be done

     Representation     5      1 modes -A''  To be done

     Representation     6      1 modes -A''  To be done



     Alpha used in Ewald sum =   0.7000
     PHONON       :    33.44s CPU        36.57s WALL



     Representation #  1 mode #   1

     Self-consistent Calculation

      iter #   1 total cpu time :    37.3 secs   av.it.:   5.3
      thresh= 1.000E-02 alpha_mix =  0.700 |ddv_scf|^2 =  6.121E-05

      iter #   2 total cpu time :    38.1 secs   av.it.:   8.9
      thresh= 7.823E-04 alpha_mix =  0.700 |ddv_scf|^2 =  1.604E-04

      iter #   3 total cpu time :    38.9 secs   av.it.:   7.6
      thresh= 1.266E-03 alpha_mix =  0.700 |ddv_scf|^2 =  1.148E-06

      iter #   4 total cpu time :    39.7 secs   av.it.:   8.4
      thresh= 1.071E-04 alpha_mix =  0.700 |ddv_scf|^2 =  6.174E-08

      iter #   5 total cpu time :    40.5 secs   av.it.:   8.3
      thresh= 2.485E-05 alpha_mix =  0.700 |ddv_scf|^2 =  7.546E-09

      iter #   6 total cpu time :    41.4 secs   av.it.:   8.5
      thresh= 8.687E-06 alpha_mix =  0.700 |ddv_scf|^2 =  8.364E-11

      iter #   7 total cpu time :    42.2 secs   av.it.:   8.8
      thresh= 9.145E-07 alpha_mix =  0.700 |ddv_scf|^2 =  3.000E-12

      iter #   8 total cpu time :    43.2 secs   av.it.:   8.6
      thresh= 1.732E-07 alpha_mix =  0.700 |ddv_scf|^2 =  1.858E-13

     End of self-consistent calculation

     Convergence has been achieved 


     Representation #  2 mode #   2

     Self-consistent Calculation

      iter #   1 total cpu time :    43.8 secs   av.it.:   5.4
      thresh= 1.000E-02 alpha_mix =  0.700 |ddv_scf|^2 =  1.090E-04

      iter #   2 total cpu time :    44.6 secs   av.it.:   8.7
      thresh= 1.044E-03 alpha_mix =  0.700 |ddv_scf|^2 =  3.107E-04

      iter #   3 total cpu time :    45.5 secs   av.it.:   7.4
      thresh= 1.763E-03 alpha_mix =  0.700 |ddv_scf|^2 =  7.939E-07

      iter #   4 total cpu time :    46.2 secs   av.it.:   8.6
      thresh= 8.910E-05 alpha_mix =  0.700 |ddv_scf|^2 =  6.020E-08

      iter #   5 total cpu time :    47.1 secs   av.it.:   8.2
      thresh= 2.454E-05 alpha_mix =  0.700 |ddv_scf|^2 =  1.073E-08

      iter #   6 total cpu time :    47.9 secs   av.it.:   8.5
      thresh= 1.036E-05 alpha_mix =  0.700 |ddv_scf|^2 =  8.364E-11

      iter #   7 total cpu time :    48.7 secs   av.it.:   8.7
      thresh= 9.145E-07 alpha_mix =  0.700 |ddv_scf|^2 =  2.672E-12

      iter #   8 total cpu time :    49.6 secs   av.it.:   8.7
      thresh= 1.635E-07 alpha_mix =  0.700 |ddv_scf|^2 =  6.870E-13

     End of self-consistent calculation

     Convergence has been achieved 


     Representation #  3 mode #   3

     Self-consistent Calculation

      iter #   1 total cpu time :    50.2 secs   av.it.:   5.3
      thresh= 1.000E-02 alpha_mix =  0.700 |ddv_scf|^2 =  8.550E-05

      iter #   2 total cpu time :    51.2 secs   av.it.:   8.8
      thresh= 9.246E-04 alpha_mix =  0.700 |ddv_scf|^2 =  2.280E-04

      iter #   3 total cpu time :    51.8 secs   av.it.:   7.4
      thresh= 1.510E-03 alpha_mix =  0.700 |ddv_scf|^2 =  1.352E-06

      iter #   4 total cpu time :    52.6 secs   av.it.:   8.2
      thresh= 1.163E-04 alpha_mix =  0.700 |ddv_scf|^2 =  6.185E-08

      iter #   5 total cpu time :    53.5 secs   av.it.:   8.4
      thresh= 2.487E-05 alpha_mix =  0.700 |ddv_scf|^2 =  1.103E-08

      iter #   6 total cpu time :    54.3 secs   av.it.:   8.4
      thresh= 1.050E-05 alpha_mix =  0.700 |ddv_scf|^2 =  4.805E-11

      iter #   7 total cpu time :    55.2 secs   av.it.:   8.7
      thresh= 6.932E-07 alpha_mix =  0.700 |ddv_scf|^2 =  1.749E-12

      iter #   8 total cpu time :    55.9 secs   av.it.:   8.8
      thresh= 1.322E-07 alpha_mix =  0.700 |ddv_scf|^2 =  3.393E-13

     End of self-consistent calculation

     Convergence has been achieved 


     Representation #  4 mode #   4

     Self-consistent Calculation

      iter #   1 total cpu time :    56.6 secs   av.it.:   5.2
      thresh= 1.000E-02 alpha_mix =  0.700 |ddv_scf|^2 =  3.776E-05

      iter #   2 total cpu time :    57.5 secs   av.it.:   8.9
[...]
        k(   59) = (  -0.8750000   0.1250000  -0.1250000), wk =   0.0625000
        k(   60) = (  -1.3750000  -0.8750000  -0.1250000), wk =   0.0000000
        k(   61) = (  -1.1250000   0.3750000  -0.3750000), wk =   0.0625000
        k(   62) = (  -1.6250000  -0.6250000  -0.3750000), wk =   0.0000000
        k(   63) = (  -0.3750000   0.3750000   1.1250000), wk =   0.0625000
        k(   64) = (  -0.8750000  -0.6250000   1.1250000), wk =   0.0000000

     Dense  grid:     2837 G-vectors     FFT dimensions: (  20,  20,  20)

     Estimated max dynamical RAM per process >       0.33MB

     Estimated total allocated dynamical RAM >       1.32MB

     Check: negative/imaginary core charge=   -0.000006    0.000000

     The potential is recalculated from file :
     ./_ph0/silicon.10.343.save/charge-density.dat

     Starting wfc are    8 atomic wfcs

     Band Structure Calculation
     Davidson diagonalization with overlap

     ethr =  1.25E-10,  avg # of iterations = 11.6

     total cpu time spent up to now is        7.3 secs

     End of band structure calculation

          k =-0.1250 0.1250 0.1250 (   338 PWs)   bands (ev):

    -5.6402   4.3641   5.6728   5.6728

          k =-0.6250-0.8750 0.1250 (   361 PWs)   bands (ev):

    -2.4580  -0.9210   2.0076   3.0757

          k =-0.3750 0.3750-0.1250 (   352 PWs)   bands (ev):

    -4.6190   1.3764   3.6968   5.1915

          k =-0.8750-0.6250-0.1250 (   361 PWs)   bands (ev):

    -2.4580  -0.9210   2.0076   3.0757

          k = 0.3750-0.3750 0.6250 (   361 PWs)   bands (ev):

    -3.4874  -0.6901   3.7138   4.4240

          k =-0.1250-1.3750 0.6250 (   361 PWs)   bands (ev):

    -2.9935  -0.6134   2.0632   4.1093

          k = 0.1250-0.1250 0.3750 (   353 PWs)   bands (ev):

    -5.1152   2.7469   4.6689   4.7309

          k =-0.3750-1.1250 0.3750 (   361 PWs)   bands (ev):

    -2.9935  -0.6134   2.0632   4.1093

          k =-0.1250 0.6250 0.1250 (   351 PWs)   bands (ev):

    -4.0886   1.0357   3.3509   3.7980

          k =-0.6250-0.3750 0.1250 (   357 PWs)   bands (ev):

    -3.6760   0.1700   2.7123   4.0729

          k = 0.6250-0.1250 0.8750 (   361 PWs)   bands (ev):

    -2.4580  -0.9210   2.0076   3.0757

          k = 0.1250-1.1250 0.8750 (   358 PWs)   bands (ev):

    -2.6233  -0.8246   2.6117   3.3326

          k = 0.3750 0.1250 0.6250 (   357 PWs)   bands (ev):

    -3.6760   0.1700   2.7123   4.0729

          k =-0.1250-0.8750 0.6250 (   361 PWs)   bands (ev):

    -2.4580  -0.9210   2.0076   3.0757

          k =-0.1250-0.8750 0.1250 (   358 PWs)   bands (ev):

    -2.6233  -0.8246   2.6117   3.3326

          k =-0.6250-1.8750 0.1250 (   351 PWs)   bands (ev):

    -4.0886   1.0357   3.3509   3.7980

          k =-0.3750 0.3750 0.3750 (   353 PWs)   bands (ev):

    -4.1893   0.0952   4.8862   4.8862

          k =-0.8750-0.6250 0.3750 (   357 PWs)   bands (ev):

    -3.6760   0.1700   2.7123   4.0729

          k = 0.3750-0.3750 1.1250 (   361 PWs)   bands (ev):

    -2.9935  -0.6134   2.0632   4.1093

          k =-0.1250-1.3750 1.1250 (   361 PWs)   bands (ev):

    -2.4580  -0.9210   2.0076   3.0757

          k = 0.1250-0.3750 0.3750 (   352 PWs)   bands (ev):

    -4.6190   1.3764   3.6968   5.1915

          k =-0.3750-1.3750 0.3750 (   361 PWs)   bands (ev):

    -3.4874  -0.6901   3.7138   4.4240

          k = 0.3750-0.3750-0.1250 (   352 PWs)   bands (ev):

    -4.6190   1.3764   3.6968   5.1915

          k =-0.1250-1.3750-0.1250 (   351 PWs)   bands (ev):

    -4.0886   1.0357   3.3509   3.7980

          k =-0.6250 0.3750-0.3750 (   361 PWs)   bands (ev):

    -3.4874  -0.6901   3.7138   4.4240

          k =-1.1250-0.6250-0.3750 (   357 PWs)   bands (ev):

    -3.6760   0.1700   2.7123   4.0729

          k =-0.3750 0.3750 0.6250 (   361 PWs)   bands (ev):

    -3.4874  -0.6901   3.7138   4.4240

          k =-0.8750-0.6250 0.6250 (   352 PWs)   bands (ev):

    -4.6190   1.3764   3.6968   5.1915

          k =-0.3750 0.1250-0.1250 (   353 PWs)   bands (ev):

    -5.1152   2.7469   4.6689   4.7309

          k =-0.8750-0.8750-0.1250 (   358 PWs)   bands (ev):

    -2.6233  -0.8246   2.6117   3.3326

          k =-0.1250 0.1250 0.3750 (   353 PWs)   bands (ev):

    -5.1152   2.7469   4.6689   4.7309

          k =-0.6250-0.8750 0.3750 (   357 PWs)   bands (ev):

    -3.6760   0.1700   2.7123   4.0729

          k = 0.1250 0.6250-0.1250 (   351 PWs)   bands (ev):

    -4.0886   1.0357   3.3509   3.7980

          k =-0.3750-0.3750-0.1250 (   352 PWs)   bands (ev):

    -4.6190   1.3764   3.6968   5.1915

          k = 0.6250 0.1250-0.1250 (   351 PWs)   bands (ev):

    -4.0886   1.0357   3.3509   3.7980

          k = 0.1250-0.8750-0.1250 (   358 PWs)   bands (ev):

    -2.6233  -0.8246   2.6117   3.3326

          k =-0.8750 0.1250-0.6250 (   361 PWs)   bands (ev):

    -2.4580  -0.9210   2.0076   3.0757

          k =-1.3750-0.8750-0.6250 (   352 PWs)   bands (ev):

    -4.6190   1.3764   3.6968   5.1915

          k = 0.8750-0.1250 0.6250 (   361 PWs)   bands (ev):

    -2.4580  -0.9210   2.0076   3.0757

          k = 0.3750-1.1250 0.6250 (   357 PWs)   bands (ev):

    -3.6760   0.1700   2.7123   4.0729

          k =-0.6250 0.1250 0.8750 (   361 PWs)   bands (ev):

    -2.4580  -0.9210   2.0076   3.0757

          k =-1.1250-0.8750 0.8750 (   338 PWs)   bands (ev):

    -5.6402   4.3641   5.6728   5.6728

          k =-0.1250 0.8750 0.6250 (   361 PWs)   bands (ev):

    -2.4580  -0.9210   2.0076   3.0757

          k =-0.6250-0.1250 0.6250 (   361 PWs)   bands (ev):

    -2.9935  -0.6134   2.0632   4.1093

          k = 0.1250 0.8750-0.6250 (   361 PWs)   bands (ev):

    -2.4580  -0.9210   2.0076   3.0757

          k =-0.3750-0.1250-0.6250 (   357 PWs)   bands (ev):

    -3.6760   0.1700   2.7123   4.0729

          k =-0.6250-0.1250-0.3750 (   357 PWs)   bands (ev):

    -3.6760   0.1700   2.7123   4.0729

          k =-1.1250-1.1250-0.3750 (   351 PWs)   bands (ev):

    -4.0886   1.0357   3.3509   3.7980

          k = 0.6250 0.1250 0.3750 (   357 PWs)   bands (ev):

    -3.6760   0.1700   2.7123   4.0729

          k = 0.1250-0.8750 0.3750 (   361 PWs)   bands (ev):

    -2.4580  -0.9210   2.0076   3.0757

          k =-0.3750-0.1250 0.6250 (   357 PWs)   bands (ev):

    -3.6760   0.1700   2.7123   4.0729

          k =-0.8750-1.1250 0.6250 (   353 PWs)   bands (ev):

    -5.1152   2.7469   4.6689   4.7309

          k = 0.1250 0.6250 0.3750 (   357 PWs)   bands (ev):

    -3.6760   0.1700   2.7123   4.0729

          k =-0.3750-0.3750 0.3750 (   353 PWs)   bands (ev):

    -4.1893   0.0952   4.8862   4.8862

          k =-0.1250 0.6250-0.3750 (   357 PWs)   bands (ev):

    -3.6760   0.1700   2.7123   4.0729

          k =-0.6250-0.3750-0.3750 (   361 PWs)   bands (ev):

    -3.4874  -0.6901   3.7138   4.4240

          k = 0.1250-0.8750-0.1250 (   358 PWs)   bands (ev):

    -2.6233  -0.8246   2.6117   3.3326

          k =-0.3750-1.8750-0.1250 (   353 PWs)   bands (ev):

    -5.1152   2.7469   4.6689   4.7309

          k =-0.8750 0.1250-0.1250 (   358 PWs)   bands (ev):

    -2.6233  -0.8246   2.6117   3.3326

          k =-1.3750-0.8750-0.1250 (   361 PWs)   bands (ev):

    -2.4580  -0.9210   2.0076   3.0757

          k =-1.1250 0.3750-0.3750 (   361 PWs)   bands (ev):

    -2.9935  -0.6134   2.0632   4.1093

          k =-1.6250-0.6250-0.3750 (   361 PWs)   bands (ev):

    -3.4874  -0.6901   3.7138   4.4240

          k =-0.3750 0.3750 1.1250 (   361 PWs)   bands (ev):

    -2.9935  -0.6134   2.0632   4.1093

          k =-0.8750-0.6250 1.1250 (   353 PWs)   bands (ev):

    -5.1152   2.7469   4.6689   4.7309

     highest occupied level (ev):     5.6728

     Writing output data file silicon.10.343.save

                                                                                

     bravais-lattice index     =            2
     lattice parameter (alat)  =      10.3430  a.u.
     unit-cell volume          =     276.6175 (a.u.)^3
     number of atoms/cell      =            2
     number of atomic types    =            1
     kinetic-energy cut-off    =      18.0000  Ry
     charge density cut-off    =      72.0000  Ry
     convergence threshold     =      1.0E-12
     beta                      =       0.7000
     number of iterations used =            4
     Exchange-correlation      = SLA  PW   PBE  PBE ( 1  4  3  4 0 0)


     celldm(1)=   10.34300  celldm(2)=    0.00000  celldm(3)=    0.00000
     celldm(4)=    0.00000  celldm(5)=    0.00000  celldm(6)=    0.00000

     crystal axes: (cart. coord. in units of alat)
               a(1) = ( -0.5000  0.0000  0.5000 )  
               a(2) = (  0.0000  0.5000  0.5000 )  
               a(3) = ( -0.5000  0.5000  0.0000 )  

     reciprocal axes: (cart. coord. in units 2 pi/alat)
               b(1) = ( -1.0000 -1.0000  1.0000 )  
               b(2) = (  1.0000  1.0000  1.0000 )  
               b(3) = ( -1.0000  1.0000 -1.0000 )  


     Atoms inside the unit cell: 

     Cartesian axes

     site n.  atom      mass           positions (alat units)
        1     Si  28.0860   tau(    1) = (    0.00000    0.00000    0.00000  )
        2     Si  28.0860   tau(    2) = (    0.25000    0.25000    0.25000  )

     Computing dynamical matrix for 
                    q = (  -0.5000000  -1.0000000   0.0000000 )

      8 Sym.Ops. (no q -> -q+G )


     G cutoff =  195.1038  (    710 G-vectors)     FFT grid: ( 20, 20, 20)
     number of k points=    64

     PseudoPot. # 1 for Si read from file:
     /home/max/quantum_espresso/qe-6.1/pseudo/si_pbe_v1.uspp.F.UPF.txt
     MD5 check sum: a056efeee980c13900f22a371efd63c1
     Pseudo is Ultrasoft + core correction, Zval =  4.0
     Generated by new atomic code, or converted to UPF format
     Using radial grid of  899 points,  6 beta functions with: 
                l(1) =   0
                l(2) =   0
                l(3) =   1
                l(4) =   1
                l(5) =   2
                l(6) =   2
     Q(r) pseudized with  8 coefficients,  rinner =    0.900   0.900   0.900
                                                       0.900   0.900


     Atomic displacements:
     There are   3 irreducible representations

     Representation     1      2 modes -  To be done

     Representation     2      2 modes -  To be done

     Representation     3      2 modes -  To be done



     Alpha used in Ewald sum =   0.7000
     PHONON       :  1m24.58s CPU     1m32.49s WALL



     Representation #  1 modes #   1  2

     Self-consistent Calculation

      iter #   1 total cpu time :    92.8 secs   av.it.:   5.3
      thresh= 1.000E-02 alpha_mix =  0.700 |ddv_scf|^2 =  6.363E-06

      iter #   2 total cpu time :    93.4 secs   av.it.:   9.9
      thresh= 2.523E-04 alpha_mix =  0.700 |ddv_scf|^2 =  3.434E-06

      iter #   3 total cpu time :    93.7 secs   av.it.:   9.3
      thresh= 1.853E-04 alpha_mix =  0.700 |ddv_scf|^2 =  9.071E-09

      iter #   4 total cpu time :    94.1 secs   av.it.:   9.0
      thresh= 9.524E-06 alpha_mix =  0.700 |ddv_scf|^2 =  1.956E-11

      iter #   5 total cpu time :    94.4 secs   av.it.:   9.2
      thresh= 4.422E-07 alpha_mix =  0.700 |ddv_scf|^2 =  5.738E-13

     End of self-consistent calculation

     Convergence has been achieved 


     Representation #  2 modes #   3  4

     Self-consistent Calculation

      iter #   1 total cpu time :    94.7 secs   av.it.:   5.2
      thresh= 1.000E-02 alpha_mix =  0.700 |ddv_scf|^2 =  9.807E-06

      iter #   2 total cpu time :    95.3 secs   av.it.:   9.9
      thresh= 3.132E-04 alpha_mix =  0.700 |ddv_scf|^2 =  1.309E-05

      iter #   3 total cpu time :    95.7 secs   av.it.:   9.1
      thresh= 3.618E-04 alpha_mix =  0.700 |ddv_scf|^2 =  1.056E-08

      iter #   4 total cpu time :    96.0 secs   av.it.:   8.8
      thresh= 1.027E-05 alpha_mix =  0.700 |ddv_scf|^2 =  8.462E-11

      iter #   5 total cpu time :    96.4 secs   av.it.:   9.4
      thresh= 9.199E-07 alpha_mix =  0.700 |ddv_scf|^2 =  1.804E-12

      iter #   6 total cpu time :    96.8 secs   av.it.:   9.1
      thresh= 1.343E-07 alpha_mix =  0.700 |ddv_scf|^2 =  1.476E-14

     End of self-consistent calculation

     Convergence has been achieved 


     Representation #  3 modes #   5  6

     Self-consistent Calculation

      iter #   1 total cpu time :    97.2 secs   av.it.:   5.1
      thresh= 1.000E-02 alpha_mix =  0.700 |ddv_scf|^2 =  2.668E-06

      iter #   2 total cpu time :    97.6 secs   av.it.:   9.7
      thresh= 1.633E-04 alpha_mix =  0.700 |ddv_scf|^2 =  1.450E-06

      iter #   3 total cpu time :    97.9 secs   av.it.:   9.0
      thresh= 1.204E-04 alpha_mix =  0.700 |ddv_scf|^2 =  8.783E-09

      iter #   4 total cpu time :    98.3 secs   av.it.:   8.7
      thresh= 9.372E-06 alpha_mix =  0.700 |ddv_scf|^2 =  4.391E-11

      iter #   5 total cpu time :    98.7 secs   av.it.:   9.1
      thresh= 6.627E-07 alpha_mix =  0.700 |ddv_scf|^2 =  6.905E-13

     End of self-consistent calculation

     Convergence has been achieved 

     Number of q in the star =    6
     List of q in the star:
          1  -0.500000000  -1.000000000   0.000000000
          2   0.000000000   1.000000000   0.500000000
          3   0.000000000  -1.000000000  -0.500000000
          4   0.500000000   1.000000000   0.000000000
          5  -1.000000000  -0.500000000   0.000000000
          6   0.000000000  -0.500000000  -1.000000000

     Diagonalizing the dynamical matrix

     q = (   -0.500000000  -1.000000000   0.000000000 ) 

 **************************************************************************
     freq (    1) =       7.331244 [THz] =     244.543967 [cm-1]
     freq (    2) =       7.331244 [THz] =     244.543967 [cm-1]
     freq (    3) =      10.945758 [THz] =     365.111183 [cm-1]
     freq (    4) =      10.945758 [THz] =     365.111183 [cm-1]
     freq (    5) =      13.867751 [THz] =     462.578387 [cm-1]
     freq (    6) =      13.867751 [THz] =     462.578387 [cm-1]
 **************************************************************************

     init_run     :      0.60s CPU      0.66s WALL (       7 calls)
     electrons    :      5.49s CPU      5.90s WALL (       7 calls)

     Called by init_run:
     wfcinit      :      0.00s CPU      0.00s WALL (       7 calls)
     potinit      :      0.02s CPU      0.03s WALL (       7 calls)

     Called by electrons:
     c_bands      :      5.48s CPU      5.89s WALL (       7 calls)
     v_of_rho     :      0.02s CPU      0.03s WALL (       8 calls)
     newd         :      0.04s CPU      0.05s WALL (       8 calls)

     Called by c_bands:
     init_us_2    :      0.69s CPU      0.76s WALL (   17588 calls)
     cegterg      :      4.66s CPU      5.01s WALL (     796 calls)

     Called by sum_band:

     Called by *egterg:
     h_psi        :     49.91s CPU     54.51s WALL (  152102 calls)
     s_psi        :      5.81s CPU      6.27s WALL (  308924 calls)
     g_psi        :      0.03s CPU      0.03s WALL (    9268 calls)
     cdiaghg      :      0.48s CPU      0.52s WALL (   10064 calls)

     Called by h_psi:
     h_psi:pot    :     49.72s CPU     54.30s WALL (  152102 calls)
     h_psi:calbec :      5.40s CPU      5.91s WALL (  152102 calls)
     vloc_psi     :     41.19s CPU     45.01s WALL (  152102 calls)
     add_vuspsi   :      2.90s CPU      3.15s WALL (  152102 calls)

     General routines
     calbec       :     11.52s CPU     12.62s WALL (  345296 calls)
     fft          :      0.61s CPU      0.66s WALL (    5239 calls)
     ffts         :      0.16s CPU      0.17s WALL (    2748 calls)
     fftw         :     48.06s CPU     52.55s WALL ( 1377558 calls)
     davcio       :      0.30s CPU      0.34s WALL (   79045 calls)

     Parallel routines
     fft_scatter  :     15.99s CPU     17.85s WALL ( 1385545 calls)

     PHONON       :  1m30.23s CPU     1m38.68s WALL

     INITIALIZATION: 
     phq_setup    :      0.05s CPU      0.06s WALL (       8 calls)
     phq_init     :      2.27s CPU      2.42s WALL (       8 calls)

     phq_init     :      2.27s CPU      2.42s WALL (       8 calls)
     set_drhoc    :      0.29s CPU      0.29s WALL (      24 calls)
     init_vloc    :      0.01s CPU      0.01s WALL (       8 calls)
     init_us_1    :      0.52s CPU      0.55s WALL (       8 calls)
     newd         :      0.04s CPU      0.05s WALL (       8 calls)
     dvanqq       :      0.26s CPU      0.27s WALL (       8 calls)
     drho         :      1.21s CPU      1.34s WALL (       8 calls)

     DYNAMICAL MATRIX:
     dynmat0      :      0.54s CPU      0.55s WALL (       8 calls)
     phqscf       :     79.13s CPU     86.79s WALL (       8 calls)
     dynmatrix    :      0.01s CPU      0.01s WALL (       8 calls)

     phqscf       :     79.13s CPU     86.79s WALL (       8 calls)
     solve_linter :     78.34s CPU     85.97s WALL (      32 calls)
     drhodv       :      0.57s CPU      0.59s WALL (      32 calls)

     dynmat0      :      0.54s CPU      0.55s WALL (       8 calls)
     dynmat_us    :      0.29s CPU      0.30s WALL (       8 calls)
     d2ionq       :      0.01s CPU      0.01s WALL (       8 calls)
     dynmatcc     :      0.22s CPU      0.22s WALL (       8 calls)

     dynmat_us    :      0.29s CPU      0.30s WALL (       8 calls)
     addusdynmat  :      0.00s CPU      0.00s WALL (       8 calls)

     phqscf       :     79.13s CPU     86.79s WALL (       8 calls)
     solve_linter :     78.34s CPU     85.97s WALL (      32 calls)

     solve_linter :     78.34s CPU     85.97s WALL (      32 calls)
     dvqpsi_us    :      1.78s CPU      1.97s WALL (    2508 calls)
     ortho        :      1.35s CPU      1.50s WALL (   15550 calls)
     cgsolve      :     61.74s CPU     67.79s WALL (   15550 calls)
     incdrhoscf   :      5.42s CPU      5.91s WALL (   15550 calls)
     addusddens   :      1.21s CPU      1.30s WALL (     228 calls)
     vpsifft      :      3.90s CPU      4.28s WALL (   12922 calls)
     dv_of_drho   :      0.25s CPU      0.26s WALL (     295 calls)
     mix_pot      :      0.06s CPU      0.06s WALL (     201 calls)
     psymdvscf    :      0.84s CPU      0.88s WALL (     196 calls)
     newdq        :      1.29s CPU      1.43s WALL (     201 calls)
     adddvscf     :      0.47s CPU      0.50s WALL (   13042 calls)
     drhodvus     :      0.00s CPU      0.00s WALL (      32 calls)

     dvqpsi_us    :      1.78s CPU      1.97s WALL (    2508 calls)
     dvqpsi_us_on :      0.82s CPU      0.90s WALL (    2508 calls)

     cgsolve      :     61.74s CPU     67.79s WALL (   15550 calls)
     ch_psi       :     59.09s CPU     64.67s WALL (  141242 calls)

     ch_psi       :     59.09s CPU     64.67s WALL (  141242 calls)
     h_psi        :     49.91s CPU     54.51s WALL (  152102 calls)
     last         :      9.91s CPU     10.95s WALL (  141242 calls)

     h_psi        :     49.91s CPU     54.51s WALL (  152102 calls)
     add_vuspsi   :      2.90s CPU      3.15s WALL (  152102 calls)

     incdrhoscf   :      5.42s CPU      5.91s WALL (   15550 calls)
     addusdbec    :      0.83s CPU      0.93s WALL (   17998 calls)

     drhodvus     :      0.00s CPU      0.00s WALL (      32 calls)

      General routines
     calbec       :     11.52s CPU     12.62s WALL (  345296 calls)
     fft          :      0.61s CPU      0.66s WALL (    5239 calls)
     ffts         :      0.16s CPU      0.17s WALL (    2748 calls)
     fftw         :     48.06s CPU     52.55s WALL ( 1377558 calls)
     davcio       :      0.30s CPU      0.34s WALL (   79045 calls)
     write_rec    :      0.20s CPU      0.23s WALL (     233 calls)


     PHONON       :  1m30.23s CPU     1m38.68s WALL


   This run was terminated on:  12:43:47   9Nov2017            

=------------------------------------------------------------------------------=
   JOB DONE.
=------------------------------------------------------------------------------=
