
     Program PWSCF v.6.1 (svn rev. 13369) starts on 10Nov2017 at 10:28: 8 

     This program is part of the open-source Quantum ESPRESSO suite
     for quantum simulation of materials; please cite
         "P. Giannozzi et al., J. Phys.:Condens. Matter 21 395502 (2009);
          URL http://www.quantum-espresso.org", 
     in publications or presentations arising from this work. More details at
     http://www.quantum-espresso.org/quote

     Parallel version (MPI), running on     4 processors
     R & G space division:  proc/nbgrp/npool/nimage =       4
     Waiting for input...
     Reading input from standard input
     Message from routine read_cards :
     DEPRECATED: no units specified in ATOMIC_POSITIONS card
     Message from routine read_cards :
     ATOMIC_POSITIONS: units set to alat

     Current dimensions of program PWSCF are:
     Max number of different atomic species (ntypx) = 10
     Max number of k-points (npk) =  40000
     Max angular momentum in pseudopotentials (lmaxx) =  3

     Subspace diagonalization in iterative solution of the eigenvalue problem:
     a serial algorithm will be used


     Parallelization info
     --------------------
     sticks:   dense  smooth     PW     G-vecs:    dense   smooth      PW
     Min         211     107     37                 4111     1454     284
     Max         212     109     38                 4116     1455     285
     Sum         847     433    151                16457     5817    1139



     bravais-lattice index     =            2
     lattice parameter (alat)  =      10.1600  a.u.
     unit-cell volume          =     262.1930 (a.u.)^3
     number of atoms/cell      =            2
     number of atomic types    =            1
     number of electrons       =         8.00
     number of Kohn-Sham states=            4
     kinetic-energy cutoff     =      30.0000  Ry
     charge density cutoff     =     240.0000  Ry
     convergence threshold     =      1.0E-08
     mixing beta               =       0.7000
     number of iterations used =            8  plain     mixing
     Exchange-correlation      = SLA  PW   PBE  PBE ( 1  4  3  4 0 0)

     celldm(1)=  10.160000  celldm(2)=   0.000000  celldm(3)=   0.000000
     celldm(4)=   0.000000  celldm(5)=   0.000000  celldm(6)=   0.000000

     crystal axes: (cart. coord. in units of alat)
               a(1) = (  -0.500000   0.000000   0.500000 )  
               a(2) = (   0.000000   0.500000   0.500000 )  
               a(3) = (  -0.500000   0.500000   0.000000 )  

     reciprocal axes: (cart. coord. in units 2 pi/alat)
               b(1) = ( -1.000000 -1.000000  1.000000 )  
               b(2) = (  1.000000  1.000000  1.000000 )  
               b(3) = ( -1.000000  1.000000 -1.000000 )  


     PseudoPot. # 1 for Si read from file:
     /home/max/quantum_espresso/qe-6.1/pseudo/si_pbe_v1.uspp.F.UPF.txt
     MD5 check sum: a056efeee980c13900f22a371efd63c1
     Pseudo is Ultrasoft + core correction, Zval =  4.0
     Generated by new atomic code, or converted to UPF format
     Using radial grid of  899 points,  6 beta functions with: 
                l(1) =   0
                l(2) =   0
                l(3) =   1
                l(4) =   1
                l(5) =   2
                l(6) =   2
     Q(r) pseudized with  8 coefficients,  rinner =    0.900   0.900   0.900
                                                       0.900   0.900

     atomic species   valence    mass     pseudopotential
        Si             4.00    28.08600     Si( 1.00)

     48 Sym. Ops., with inversion, found (24 have fractional translation)



   Cartesian axes

     site n.     atom                  positions (alat units)
         1           Si  tau(   1) = (   0.0000000   0.0000000   0.0000000  )
         2           Si  tau(   2) = (   0.2500000   0.2500000   0.2500000  )

     number of k points=    28
                       cart. coord. in units 2pi/alat
        k(    1) = (  -0.0833333   0.0833333   0.0833333), wk =   0.0185185
        k(    2) = (  -0.2500000   0.2500000  -0.0833333), wk =   0.0555556
        k(    3) = (  -0.4166667   0.4166667  -0.2500000), wk =   0.0555556
        k(    4) = (   0.4166667  -0.4166667   0.5833333), wk =   0.0555556
        k(    5) = (   0.2500000  -0.2500000   0.4166667), wk =   0.0555556
        k(    6) = (   0.0833333  -0.0833333   0.2500000), wk =   0.0555556
        k(    7) = (  -0.0833333   0.4166667   0.0833333), wk =   0.0555556
        k(    8) = (  -0.2500000   0.5833333  -0.0833333), wk =   0.1111111
        k(    9) = (   0.5833333  -0.2500000   0.7500000), wk =   0.1111111
        k(   10) = (   0.4166667  -0.0833333   0.5833333), wk =   0.1111111
        k(   11) = (   0.2500000   0.0833333   0.4166667), wk =   0.1111111
        k(   12) = (  -0.0833333   0.7500000   0.0833333), wk =   0.0555556
        k(   13) = (   0.7500000  -0.0833333   0.9166667), wk =   0.1111111
        k(   14) = (   0.5833333   0.0833333   0.7500000), wk =   0.1111111
        k(   15) = (   0.4166667   0.2500000   0.5833333), wk =   0.1111111
        k(   16) = (  -0.0833333  -0.9166667   0.0833333), wk =   0.0555556
        k(   17) = (  -0.2500000  -0.7500000  -0.0833333), wk =   0.1111111
        k(   18) = (  -0.0833333  -0.5833333   0.0833333), wk =   0.0555556
        k(   19) = (  -0.2500000   0.2500000   0.2500000), wk =   0.0185185
        k(   20) = (  -0.4166667   0.4166667   0.0833333), wk =   0.0555556
        k(   21) = (   0.4166667  -0.4166667   0.9166667), wk =   0.0555556
        k(   22) = (   0.2500000  -0.2500000   0.7500000), wk =   0.0555556
        k(   23) = (  -0.2500000   0.5833333   0.2500000), wk =   0.0555556
        k(   24) = (   0.5833333  -0.2500000   1.0833333), wk =   0.1111111
        k(   25) = (   0.4166667  -0.0833333   0.9166667), wk =   0.1111111
        k(   26) = (  -0.2500000  -1.0833333   0.2500000), wk =   0.0555556
        k(   27) = (  -0.4166667   0.4166667   0.4166667), wk =   0.0185185
        k(   28) = (   0.4166667  -0.4166667   1.2500000), wk =   0.0555556

     Dense  grid:    16457 G-vectors     FFT dimensions: (  36,  36,  36)

     Smooth grid:     5817 G-vectors     FFT dimensions: (  25,  25,  25)

     Estimated max dynamical RAM per process >       2.95MB

     Estimated total allocated dynamical RAM >      11.80MB

     Initial potential from superposition of free atoms

     starting charge    7.99866, renormalised to    8.00000
     Starting wfc are    8 randomized atomic wfcs

     total cpu time spent up to now is        0.5 secs

     per-process dynamical memory:    10.0 Mb

     Self-consistent Calculation

     iteration #  1     ecut=    30.00 Ry     beta=0.70
     Davidson diagonalization with overlap
     ethr =  1.00E-02,  avg # of iterations =  2.0

     Threshold (ethr) on eigenvalues was too large:
     Diagonalizing with lowered threshold

     Davidson diagonalization with overlap
     ethr =  7.37E-04,  avg # of iterations =  1.0

     total cpu time spent up to now is        0.9 secs

     total energy              =     -19.18858251 Ry
     Harris-Foulkes estimate   =     -19.20319852 Ry
     estimated scf accuracy    <       0.05822497 Ry

     iteration #  2     ecut=    30.00 Ry     beta=0.70
     Davidson diagonalization with overlap
     ethr =  7.28E-04,  avg # of iterations =  1.0

     total cpu time spent up to now is        1.6 secs

     total energy              =     -19.19072285 Ry
     Harris-Foulkes estimate   =     -19.19088965 Ry
     estimated scf accuracy    <       0.00243442 Ry

     iteration #  3     ecut=    30.00 Ry     beta=0.70
     Davidson diagonalization with overlap
     ethr =  3.04E-05,  avg # of iterations =  2.1

     total cpu time spent up to now is        1.8 secs

     total energy              =     -19.19111134 Ry
     Harris-Foulkes estimate   =     -19.19112771 Ry
     estimated scf accuracy    <       0.00005006 Ry

     iteration #  4     ecut=    30.00 Ry     beta=0.70
     Davidson diagonalization with overlap
     ethr =  6.26E-07,  avg # of iterations =  3.3

     total cpu time spent up to now is        2.1 secs

     total energy              =     -19.19115319 Ry
     Harris-Foulkes estimate   =     -19.19115468 Ry
     estimated scf accuracy    <       0.00000487 Ry

     iteration #  5     ecut=    30.00 Ry     beta=0.70
     Davidson diagonalization with overlap
     ethr =  6.08E-08,  avg # of iterations =  2.0

     total cpu time spent up to now is        2.3 secs

     total energy              =     -19.19115384 Ry
     Harris-Foulkes estimate   =     -19.19115384 Ry
     estimated scf accuracy    <       0.00000002 Ry

     iteration #  6     ecut=    30.00 Ry     beta=0.70
     Davidson diagonalization with overlap
     ethr =  2.45E-10,  avg # of iterations =  3.9

     total cpu time spent up to now is        2.6 secs

     End of self-consistent calculation

          k =-0.0833 0.0833 0.0833 (   731 PWs)   bands (ev):

    -5.5646   5.6504   6.3625   6.3625

          k =-0.2500 0.2500-0.0833 (   729 PWs)   bands (ev):

    -5.0737   3.5406   5.0855   6.1517

          k =-0.4167 0.4167-0.2500 (   739 PWs)   bands (ev):

    -3.9445   0.6974   4.6200   5.4958

          k = 0.4167-0.4167 0.5833 (   728 PWs)   bands (ev):

    -3.2134  -0.4910   4.6958   5.1009

          k = 0.2500-0.2500 0.4167 (   731 PWs)   bands (ev):

    -4.3713   1.5704   5.1571   5.2105

          k = 0.0833-0.0833 0.2500 (   722 PWs)   bands (ev):

    -5.3169   4.5769   5.6906   5.9000

          k =-0.0833 0.4167 0.0833 (   728 PWs)   bands (ev):

    -4.8256   3.3776   4.9343   4.9370

          k =-0.2500 0.5833-0.0833 (   732 PWs)   bands (ev):

    -3.8865   1.4956   3.5639   4.5409

          k = 0.5833-0.2500 0.7500 (   725 PWs)   bands (ev):

    -2.7232  -0.3294   2.9559   4.3021

          k = 0.4167-0.0833 0.5833 (   727 PWs)   bands (ev):

    -3.4769   0.7755   2.8984   4.8100

          k = 0.2500 0.0833 0.4167 (   729 PWs)   bands (ev):

    -4.5928   2.5036   4.2850   5.5084

          k =-0.0833 0.7500 0.0833 (   728 PWs)   bands (ev):

    -3.1546   0.6682   3.5204   3.8785

          k = 0.7500-0.0833 0.9167 (   729 PWs)   bands (ev):

    -1.9171  -0.7084   2.6394   3.4509

          k = 0.5833 0.0833 0.7500 (   721 PWs)   bands (ev):

    -2.2907  -0.3814   2.1431   4.0163

          k = 0.4167 0.2500 0.5833 (   727 PWs)   bands (ev):

    -3.3569   0.0404   3.8931   4.9135

          k =-0.0833-0.9167 0.0833 (   728 PWs)   bands (ev):

    -2.0163  -0.7189   3.2413   3.6573

          k =-0.2500-0.7500-0.0833 (   728 PWs)   bands (ev):

    -2.9782   0.4345   2.9803   3.8018

          k =-0.0833-0.5833 0.0833 (   726 PWs)   bands (ev):

    -4.0996   2.0646   4.0877   4.3126

          k =-0.2500 0.2500 0.2500 (   733 PWs)   bands (ev):

    -4.8369   2.5271   5.7316   5.7316

          k =-0.4167 0.4167 0.0833 (   733 PWs)   bands (ev):

    -4.1361   1.5938   3.5278   5.5605

          k = 0.4167-0.4167 0.9167 (   726 PWs)   bands (ev):

    -2.9139   0.1261   2.3772   4.7444

          k = 0.2500-0.2500 0.7500 (   724 PWs)   bands (ev):

    -2.8620   0.0455   2.8794   4.2444

          k =-0.2500 0.5833 0.2500 (   726 PWs)   bands (ev):

    -3.6974   0.7568   4.0276   4.6294

          k = 0.5833-0.2500 1.0833 (   726 PWs)   bands (ev):

    -2.6606   0.0255   2.4780   3.7953

          k = 0.4167-0.0833 0.9167 (   723 PWs)   bands (ev):

    -1.8005  -0.7164   2.2956   3.1000

          k =-0.2500-1.0833 0.2500 (   723 PWs)   bands (ev):

    -2.0166  -0.6302   2.1653   4.0439

          k =-0.4167 0.4167 0.4167 (   739 PWs)   bands (ev):

    -3.6001  -0.0764   5.3358   5.3358

          k = 0.4167-0.4167 1.2500 (   731 PWs)   bands (ev):

    -2.9713  -0.3767   3.4517   4.8767

     highest occupied level (ev):     6.3625

!    total energy              =     -19.19115389 Ry
     Harris-Foulkes estimate   =     -19.19115389 Ry
     estimated scf accuracy    <          1.3E-09 Ry

     The total energy is the sum of the following terms:

     one-electron contribution =       5.34311531 Ry
     hartree contribution      =       1.08956398 Ry
     xc contribution           =      -8.65754012 Ry
     ewald contribution        =     -16.96629306 Ry

     convergence has been achieved in   6 iterations

     Writing output data file silicon.10.16.save

     init_run     :      0.35s CPU      0.39s WALL (       1 calls)
     electrons    :      1.49s CPU      2.16s WALL (       1 calls)

     Called by init_run:
     wfcinit      :      0.08s CPU      0.09s WALL (       1 calls)
     potinit      :      0.02s CPU      0.02s WALL (       1 calls)

     Called by electrons:
     c_bands      :      0.89s CPU      1.34s WALL (       7 calls)
     sum_band     :      0.37s CPU      0.51s WALL (       7 calls)
     v_of_rho     :      0.10s CPU      0.13s WALL (       7 calls)
     newd         :      0.14s CPU      0.18s WALL (       7 calls)
     mix_rho      :      0.01s CPU      0.02s WALL (       7 calls)

     Called by c_bands:
     init_us_2    :      0.05s CPU      0.06s WALL (     420 calls)
     cegterg      :      0.77s CPU      1.17s WALL (     196 calls)

     Called by sum_band:
     sum_band:bec :      0.00s CPU      0.00s WALL (     196 calls)
     addusdens    :      0.15s CPU      0.20s WALL (       7 calls)

     Called by *egterg:
     h_psi        :      0.66s CPU      0.98s WALL (     651 calls)
     s_psi        :      0.05s CPU      0.06s WALL (     651 calls)
     g_psi        :      0.00s CPU      0.00s WALL (     427 calls)
     cdiaghg      :      0.05s CPU      0.07s WALL (     595 calls)

     Called by h_psi:
     h_psi:pot    :      0.66s CPU      0.98s WALL (     651 calls)
     h_psi:calbec :      0.07s CPU      0.11s WALL (     651 calls)
     vloc_psi     :      0.54s CPU      0.82s WALL (     651 calls)
     add_vuspsi   :      0.05s CPU      0.06s WALL (     651 calls)

     General routines
     calbec       :      0.09s CPU      0.14s WALL (     847 calls)
     fft          :      0.08s CPU      0.13s WALL (     112 calls)
     ffts         :      0.00s CPU      0.01s WALL (      14 calls)
     fftw         :      0.60s CPU      0.91s WALL (    5672 calls)
     interpolate  :      0.01s CPU      0.02s WALL (      14 calls)
     davcio       :      0.00s CPU      0.00s WALL (      28 calls)

     Parallel routines
     fft_scatter  :      0.35s CPU      0.66s WALL (    5798 calls)

     PWSCF        :     2.04s CPU         2.78s WALL


   This run was terminated on:  10:28:11  10Nov2017            

=------------------------------------------------------------------------------=
   JOB DONE.
=------------------------------------------------------------------------------=
