
     Program PHONON v.6.1 (svn rev. 13369) starts on  9Nov2017 at  1:12:45 

     This program is part of the open-source Quantum ESPRESSO suite
     for quantum simulation of materials; please cite
         "P. Giannozzi et al., J. Phys.:Condens. Matter 21 395502 (2009);
          URL http://www.quantum-espresso.org", 
     in publications or presentations arising from this work. More details at
     http://www.quantum-espresso.org/quote

     Parallel version (MPI), running on     4 processors
     R & G space division:  proc/nbgrp/npool/nimage =       4

     Reading data from directory:
     ./silicon.10.26.save

   Info: using nr1, nr2, nr3 values from input

   Info: using nr1, nr2, nr3 values from input

     IMPORTANT: XC functional enforced from input :
     Exchange-correlation      = SLA  PW   PBE  PBE ( 1  4  3  4 0 0)
     Any further DFT definition will be discarded
     Please, verify this is what you really want


     Parallelization info
     --------------------
     sticks:   dense  smooth     PW     G-vecs:    dense   smooth      PW
     Min          63      63     21                  682      682     133
     Max          64      64     22                  686      686     136
     Sum         253     253     85                 2733     2733     537


     Check: negative/imaginary core charge=   -0.000005    0.000000


     Dynamical matrices for ( 4, 4, 4)  uniform grid of q-points
     (   8q-points):
       N         xq(1)         xq(2)         xq(3) 
       1   0.000000000   0.000000000   0.000000000
       2  -0.250000000   0.250000000  -0.250000000
       3   0.500000000  -0.500000000   0.500000000
       4   0.000000000   0.500000000   0.000000000
       5   0.750000000  -0.250000000   0.750000000
       6   0.500000000   0.000000000   0.500000000
       7   0.000000000  -1.000000000   0.000000000
       8  -0.500000000  -1.000000000   0.000000000

     Calculation of q =    0.0000000   0.0000000   0.0000000

                                                                                

     bravais-lattice index     =            2
     lattice parameter (alat)  =      10.2600  a.u.
     unit-cell volume          =     270.0114 (a.u.)^3
     number of atoms/cell      =            2
     number of atomic types    =            1
     kinetic-energy cut-off    =      18.0000  Ry
     charge density cut-off    =      72.0000  Ry
     convergence threshold     =      1.0E-12
     beta                      =       0.7000
     number of iterations used =            4
     Exchange-correlation      = SLA  PW   PBE  PBE ( 1  4  3  4 0 0)


     celldm(1)=   10.26000  celldm(2)=    0.00000  celldm(3)=    0.00000
     celldm(4)=    0.00000  celldm(5)=    0.00000  celldm(6)=    0.00000

     crystal axes: (cart. coord. in units of alat)
               a(1) = ( -0.5000  0.0000  0.5000 )  
               a(2) = (  0.0000  0.5000  0.5000 )  
               a(3) = ( -0.5000  0.5000  0.0000 )  

     reciprocal axes: (cart. coord. in units 2 pi/alat)
               b(1) = ( -1.0000 -1.0000  1.0000 )  
               b(2) = (  1.0000  1.0000  1.0000 )  
               b(3) = ( -1.0000  1.0000 -1.0000 )  


     Atoms inside the unit cell: 

     Cartesian axes

     site n.  atom      mass           positions (alat units)
        1     Si  28.0860   tau(    1) = (    0.00000    0.00000    0.00000  )
        2     Si  28.0860   tau(    2) = (    0.25000    0.25000    0.25000  )

     Computing dynamical matrix for 
                    q = (   0.0000000   0.0000000   0.0000000 )

     49 Sym.Ops. (with q -> -q+G )


     G cutoff =  191.9851  (    683 G-vectors)     FFT grid: ( 20, 20, 20)
     number of k points=    10

     PseudoPot. # 1 for Si read from file:
     /home/max/quantum_espresso/qe-6.1/pseudo/si_pbe_v1.uspp.F.UPF.txt
     MD5 check sum: a056efeee980c13900f22a371efd63c1
     Pseudo is Ultrasoft + core correction, Zval =  4.0
     Generated by new atomic code, or converted to UPF format
     Using radial grid of  899 points,  6 beta functions with: 
                l(1) =   0
                l(2) =   0
                l(3) =   1
                l(4) =   1
                l(5) =   2
                l(6) =   2
     Q(r) pseudized with  8 coefficients,  rinner =    0.900   0.900   0.900
                                                       0.900   0.900

     Mode symmetry, O_h (m-3m)  point group:


     Electric field:
     Dielectric constant
     Born effective charges in two ways 


     Atomic displacements:
     There are   2 irreducible representations

     Representation     1      3 modes -T_2g G_25' G_5+  To be done

     Representation     2      3 modes -T_1u G_15  G_4-  To be done



     Alpha used in Ewald sum =   0.7000
     PHONON       :     0.39s CPU         0.40s WALL


     Electric Fields Calculation

      iter #   1 total cpu time :     0.8 secs   av.it.:   5.6
      thresh= 1.000E-02 alpha_mix =  0.700 |ddv_scf|^2 =  9.003E-07

      iter #   2 total cpu time :     0.9 secs   av.it.:   9.9
      thresh= 9.489E-05 alpha_mix =  0.700 |ddv_scf|^2 =  5.402E-08

      iter #   3 total cpu time :     1.1 secs   av.it.:   9.8
      thresh= 2.324E-05 alpha_mix =  0.700 |ddv_scf|^2 =  4.024E-09

      iter #   4 total cpu time :     1.3 secs   av.it.:   9.0
      thresh= 6.344E-06 alpha_mix =  0.700 |ddv_scf|^2 =  2.313E-11

      iter #   5 total cpu time :     1.4 secs   av.it.:   9.1
      thresh= 4.809E-07 alpha_mix =  0.700 |ddv_scf|^2 =  1.184E-14

     End of electric fields calculation

          Dielectric constant in cartesian axis 

          (      13.744569410       0.000000000       0.000000000 )
          (       0.000000000      13.744569410      -0.000000000 )
          (       0.000000000      -0.000000000      13.744569410 )

          Effective charges (d Force / dE) in cartesian axis

           atom      1   Si 
      Ex  (       -0.03652        0.00000        0.00000 )
      Ey  (        0.00000       -0.03652        0.00000 )
      Ez  (       -0.00000        0.00000       -0.03652 )
           atom      2   Si 
      Ex  (       -0.03652       -0.00000        0.00000 )
      Ey  (       -0.00000       -0.03652        0.00000 )
      Ez  (        0.00000        0.00000       -0.03652 )


     Representation #  1 modes #   1  2  3

     Self-consistent Calculation

      iter #   1 total cpu time :     1.8 secs   av.it.:   4.9
      thresh= 1.000E-02 alpha_mix =  0.700 |ddv_scf|^2 =  2.138E-07

      iter #   2 total cpu time :     2.0 secs   av.it.:   9.9
      thresh= 4.624E-05 alpha_mix =  0.700 |ddv_scf|^2 =  1.284E-08

      iter #   3 total cpu time :     2.2 secs   av.it.:   9.3
      thresh= 1.133E-05 alpha_mix =  0.700 |ddv_scf|^2 =  8.140E-10

      iter #   4 total cpu time :     2.3 secs   av.it.:   9.0
      thresh= 2.853E-06 alpha_mix =  0.700 |ddv_scf|^2 =  1.789E-12

      iter #   5 total cpu time :     2.5 secs   av.it.:   9.4
      thresh= 1.338E-07 alpha_mix =  0.700 |ddv_scf|^2 =  1.177E-14

     End of self-consistent calculation

     Convergence has been achieved 


     Representation #  2 modes #   4  5  6

     Self-consistent Calculation

      iter #   1 total cpu time :     2.7 secs   av.it.:   5.0
      thresh= 1.000E-02 alpha_mix =  0.700 |ddv_scf|^2 =  1.769E-07

      iter #   2 total cpu time :     2.9 secs   av.it.:   9.6
      thresh= 4.206E-05 alpha_mix =  0.700 |ddv_scf|^2 =  1.392E-08

      iter #   3 total cpu time :     3.1 secs   av.it.:   9.2
      thresh= 1.180E-05 alpha_mix =  0.700 |ddv_scf|^2 =  8.571E-10

      iter #   4 total cpu time :     3.3 secs   av.it.:   9.5
      thresh= 2.928E-06 alpha_mix =  0.700 |ddv_scf|^2 =  4.955E-12

      iter #   5 total cpu time :     3.4 secs   av.it.:   8.9
      thresh= 2.226E-07 alpha_mix =  0.700 |ddv_scf|^2 =  3.688E-15

     End of self-consistent calculation

     Convergence has been achieved 

     Number of q in the star =    1
     List of q in the star:
          1   0.000000000   0.000000000   0.000000000

          Dielectric constant in cartesian axis 

          (      13.744569410       0.000000000       0.000000000 )
          (       0.000000000      13.744569410      -0.000000000 )
          (       0.000000000      -0.000000000      13.744569410 )

          Effective charges (d Force / dE) in cartesian axis

           atom      1   Si 
      Ex  (       -0.03652        0.00000        0.00000 )
      Ey  (        0.00000       -0.03652        0.00000 )
      Ez  (       -0.00000        0.00000       -0.03652 )
           atom      2   Si 
      Ex  (       -0.03652       -0.00000        0.00000 )
      Ey  (       -0.00000       -0.03652        0.00000 )
      Ez  (        0.00000        0.00000       -0.03652 )

          Effective charges (d P / du) in cartesian axis 

           atom      1   Si 
      Px  (       -0.07496       -0.00000       -0.00000 )
      Py  (        0.00000       -0.07496        0.00000 )
      Pz  (       -0.00000        0.00000       -0.07496 )
           atom      2   Si 
      Px  (       -0.07496        0.00000        0.00000 )
      Py  (        0.00000       -0.07496        0.00000 )
      Pz  (        0.00000        0.00000       -0.07496 )

     Diagonalizing the dynamical matrix

     q = (    0.000000000   0.000000000   0.000000000 ) 

 **************************************************************************
     freq (    1) =       1.733377 [THz] =      57.819245 [cm-1]
     freq (    2) =       1.733377 [THz] =      57.819245 [cm-1]
     freq (    3) =       1.733377 [THz] =      57.819245 [cm-1]
     freq (    4) =      15.446712 [THz] =     515.246849 [cm-1]
     freq (    5) =      15.446712 [THz] =     515.246849 [cm-1]
     freq (    6) =      15.446712 [THz] =     515.246849 [cm-1]
 **************************************************************************

     Mode symmetry, O_h (m-3m)  point group:

     freq (  1 -  3) =         57.8  [cm-1]   --> T_1u G_15  G_4- I  
     freq (  4 -  6) =        515.2  [cm-1]   --> T_2g G_25' G_5+ R  

     Calculation of q =   -0.2500000   0.2500000  -0.2500000

   Info: using nr1, nr2, nr3 values from input

   Info: using nr1, nr2, nr3 values from input

     Parallelization info
     --------------------
     sticks:   dense  smooth     PW     G-vecs:    dense   smooth      PW
     Min          63      63     24                  682      682     161
     Max          64      64     25                  686      686     162
     Sum         253     253     97                 2733     2733     645



     bravais-lattice index     =            2
     lattice parameter (alat)  =      10.2600  a.u.
     unit-cell volume          =     270.0114 (a.u.)^3
     number of atoms/cell      =            2
     number of atomic types    =            1
     number of electrons       =         8.00
     number of Kohn-Sham states=            4
     kinetic-energy cutoff     =      18.0000  Ry
     charge density cutoff     =      72.0000  Ry
     Exchange-correlation      = SLA  PW   PBE  PBE ( 1  4  3  4 0 0)

     celldm(1)=  10.260000  celldm(2)=   0.000000  celldm(3)=   0.000000
     celldm(4)=   0.000000  celldm(5)=   0.000000  celldm(6)=   0.000000

     crystal axes: (cart. coord. in units of alat)
               a(1) = (  -0.500000   0.000000   0.500000 )  
               a(2) = (   0.000000   0.500000   0.500000 )  
               a(3) = (  -0.500000   0.500000   0.000000 )  

     reciprocal axes: (cart. coord. in units 2 pi/alat)
               b(1) = ( -1.000000 -1.000000  1.000000 )  
               b(2) = (  1.000000  1.000000  1.000000 )  
               b(3) = ( -1.000000  1.000000 -1.000000 )  


     PseudoPot. # 1 for Si read from file:
     /home/max/quantum_espresso/qe-6.1/pseudo/si_pbe_v1.uspp.F.UPF.txt
     MD5 check sum: a056efeee980c13900f22a371efd63c1
     Pseudo is Ultrasoft + core correction, Zval =  4.0
     Generated by new atomic code, or converted to UPF format
     Using radial grid of  899 points,  6 beta functions with: 
                l(1) =   0
                l(2) =   0
                l(3) =   1
                l(4) =   1
                l(5) =   2
                l(6) =   2
     Q(r) pseudized with  8 coefficients,  rinner =    0.900   0.900   0.900
                                                       0.900   0.900

     atomic species   valence    mass     pseudopotential
        Si             4.00    28.08600     Si( 1.00)

     48 Sym. Ops., with inversion, found



   Cartesian axes

     site n.     atom                  positions (alat units)
         1           Si  tau(   1) = (   0.0000000   0.0000000   0.0000000  )
         2           Si  tau(   2) = (   0.2500000   0.2500000   0.2500000  )

     number of k points=   120

     Number of k-points >= 100: set verbosity='high' to print them.

     Dense  grid:     2733 G-vectors     FFT dimensions: (  20,  20,  20)

     Estimated max dynamical RAM per process >       0.32MB

     Estimated total allocated dynamical RAM >       1.30MB

     Check: negative/imaginary core charge=   -0.000005    0.000000

     The potential is recalculated from file :
     ./_ph0/silicon.10.26.save/charge-density.dat

     Starting wfc are    8 atomic wfcs

     Band Structure Calculation
     Davidson diagonalization with overlap

     ethr =  1.25E-10,  avg # of iterations = 11.6

     total cpu time spent up to now is        0.8 secs

     End of band structure calculation

     Number of k-points >= 100: set verbosity='high' to print the bands.

     highest occupied level (ev):     5.9146

     Writing output data file silicon.10.26.save

                                                                                

     bravais-lattice index     =            2
     lattice parameter (alat)  =      10.2600  a.u.
     unit-cell volume          =     270.0114 (a.u.)^3
     number of atoms/cell      =            2
     number of atomic types    =            1
     kinetic-energy cut-off    =      18.0000  Ry
     charge density cut-off    =      72.0000  Ry
     convergence threshold     =      1.0E-12
     beta                      =       0.7000
     number of iterations used =            4
     Exchange-correlation      = SLA  PW   PBE  PBE ( 1  4  3  4 0 0)


     celldm(1)=   10.26000  celldm(2)=    0.00000  celldm(3)=    0.00000
     celldm(4)=    0.00000  celldm(5)=    0.00000  celldm(6)=    0.00000

     crystal axes: (cart. coord. in units of alat)
               a(1) = ( -0.5000  0.0000  0.5000 )  
               a(2) = (  0.0000  0.5000  0.5000 )  
               a(3) = ( -0.5000  0.5000  0.0000 )  

     reciprocal axes: (cart. coord. in units 2 pi/alat)
               b(1) = ( -1.0000 -1.0000  1.0000 )  
               b(2) = (  1.0000  1.0000  1.0000 )  
               b(3) = ( -1.0000  1.0000 -1.0000 )  


     Atoms inside the unit cell: 

     Cartesian axes

     site n.  atom      mass           positions (alat units)
        1     Si  28.0860   tau(    1) = (    0.00000    0.00000    0.00000  )
        2     Si  28.0860   tau(    2) = (    0.25000    0.25000    0.25000  )

     Computing dynamical matrix for 
                    q = (  -0.2500000   0.2500000  -0.2500000 )

      6 Sym.Ops. (no q -> -q+G )


     G cutoff =  191.9851  (    683 G-vectors)     FFT grid: ( 20, 20, 20)
     number of k points=   120

     PseudoPot. # 1 for Si read from file:
     /home/max/quantum_espresso/qe-6.1/pseudo/si_pbe_v1.uspp.F.UPF.txt
     MD5 check sum: a056efeee980c13900f22a371efd63c1
     Pseudo is Ultrasoft + core correction, Zval =  4.0
     Generated by new atomic code, or converted to UPF format
     Using radial grid of  899 points,  6 beta functions with: 
                l(1) =   0
                l(2) =   0
                l(3) =   1
                l(4) =   1
                l(5) =   2
                l(6) =   2
     Q(r) pseudized with  8 coefficients,  rinner =    0.900   0.900   0.900
                                                       0.900   0.900

     Mode symmetry, C_3v (3m)   point group:


     Atomic displacements:
     There are   4 irreducible representations

     Representation     1      1 modes -A_1  L_1  To be done

     Representation     2      1 modes -A_1  L_1  To be done

     Representation     3      2 modes -E    L_3  To be done

     Representation     4      2 modes -E    L_3  To be done



     Alpha used in Ewald sum =   0.7000
     PHONON       :     4.49s CPU         4.68s WALL



     Representation #  1 mode #   1

     Self-consistent Calculation

      iter #   1 total cpu time :     4.9 secs   av.it.:   5.5
      thresh= 1.000E-02 alpha_mix =  0.700 |ddv_scf|^2 =  2.525E-03

      iter #   2 total cpu time :     5.1 secs   av.it.:   7.4
      thresh= 5.025E-03 alpha_mix =  0.700 |ddv_scf|^2 =  3.785E-02

      iter #   3 total cpu time :     5.3 secs   av.it.:   6.3
      thresh= 1.000E-02 alpha_mix =  0.700 |ddv_scf|^2 =  1.691E-06

      iter #   4 total cpu time :     5.6 secs   av.it.:   8.2
      thresh= 1.300E-04 alpha_mix =  0.700 |ddv_scf|^2 =  1.099E-07

      iter #   5 total cpu time :     5.9 secs   av.it.:   8.1
      thresh= 3.315E-05 alpha_mix =  0.700 |ddv_scf|^2 =  4.883E-09

      iter #   6 total cpu time :     6.1 secs   av.it.:   7.8
      thresh= 6.988E-06 alpha_mix =  0.700 |ddv_scf|^2 =  1.202E-08

      iter #   7 total cpu time :     6.3 secs   av.it.:   5.8
      thresh= 1.096E-05 alpha_mix =  0.700 |ddv_scf|^2 =  1.609E-10

      iter #   8 total cpu time :     6.6 secs   av.it.:   7.7
      thresh= 1.268E-06 alpha_mix =  0.700 |ddv_scf|^2 =  4.625E-12

      iter #   9 total cpu time :     6.8 secs   av.it.:   7.1
      thresh= 2.151E-07 alpha_mix =  0.700 |ddv_scf|^2 =  1.900E-13

     End of self-consistent calculation

     Convergence has been achieved 


     Representation #  2 mode #   2

     Self-consistent Calculation

      iter #   1 total cpu time :     7.0 secs   av.it.:   5.5
      thresh= 1.000E-02 alpha_mix =  0.700 |ddv_scf|^2 =  2.525E-03

      iter #   2 total cpu time :     7.3 secs   av.it.:   7.4
      thresh= 5.025E-03 alpha_mix =  0.700 |ddv_scf|^2 =  3.785E-02

      iter #   3 total cpu time :     7.5 secs   av.it.:   6.3
      thresh= 1.000E-02 alpha_mix =  0.700 |ddv_scf|^2 =  1.691E-06

      iter #   4 total cpu time :     7.7 secs   av.it.:   8.2
      thresh= 1.300E-04 alpha_mix =  0.700 |ddv_scf|^2 =  1.099E-07

      iter #   5 total cpu time :     8.0 secs   av.it.:   8.1
      thresh= 3.315E-05 alpha_mix =  0.700 |ddv_scf|^2 =  4.883E-09

      iter #   6 total cpu time :     8.2 secs   av.it.:   7.8
      thresh= 6.988E-06 alpha_mix =  0.700 |ddv_scf|^2 =  1.202E-08

      iter #   7 total cpu time :     8.4 secs   av.it.:   5.8
      thresh= 1.096E-05 alpha_mix =  0.700 |ddv_scf|^2 =  1.609E-10

      iter #   8 total cpu time :     8.7 secs   av.it.:   7.7
      thresh= 1.268E-06 alpha_mix =  0.700 |ddv_scf|^2 =  4.625E-12

      iter #   9 total cpu time :     8.9 secs   av.it.:   7.1
      thresh= 2.151E-07 alpha_mix =  0.700 |ddv_scf|^2 =  1.900E-13

     End of self-consistent calculation

     Convergence has been achieved 


     Representation #  3 modes #   3  4

     Self-consistent Calculation

      iter #   1 total cpu time :     9.3 secs   av.it.:   5.0
      thresh= 1.000E-02 alpha_mix =  0.700 |ddv_scf|^2 =  5.518E-07

      iter #   2 total cpu time :     9.9 secs   av.it.:   9.4
      thresh= 7.428E-05 alpha_mix =  0.700 |ddv_scf|^2 =  4.063E-08

      iter #   3 total cpu time :    10.4 secs   av.it.:   9.2
      thresh= 2.016E-05 alpha_mix =  0.700 |ddv_scf|^2 =  3.456E-09

      iter #   4 total cpu time :    11.0 secs   av.it.:   8.9
      thresh= 5.879E-06 alpha_mix =  0.700 |ddv_scf|^2 =  1.051E-11

      iter #   5 total cpu time :    11.5 secs   av.it.:   9.1
      thresh= 3.242E-07 alpha_mix =  0.700 |ddv_scf|^2 =  4.815E-13

     End of self-consistent calculation

     Convergence has been achieved 


     Representation #  4 modes #   5  6

     Self-consistent Calculation

      iter #   1 total cpu time :    11.9 secs   av.it.:   5.0
      thresh= 1.000E-02 alpha_mix =  0.700 |ddv_scf|^2 =  5.516E-07

      iter #   2 total cpu time :    12.5 secs   av.it.:   9.6
      thresh= 7.427E-05 alpha_mix =  0.700 |ddv_scf|^2 =  4.059E-08

      iter #   3 total cpu time :    13.1 secs   av.it.:   9.4
      thresh= 2.015E-05 alpha_mix =  0.700 |ddv_scf|^2 =  3.453E-09

      iter #   4 total cpu time :    13.6 secs   av.it.:   9.1
      thresh= 5.876E-06 alpha_mix =  0.700 |ddv_scf|^2 =  1.052E-11

      iter #   5 total cpu time :    14.2 secs   av.it.:   9.2
      thresh= 3.243E-07 alpha_mix =  0.700 |ddv_scf|^2 =  4.819E-13

     End of self-consistent calculation

     Convergence has been achieved 

     Number of q in the star =    8
     List of q in the star:
          1  -0.250000000   0.250000000  -0.250000000
          2   0.250000000  -0.250000000  -0.250000000
          3   0.250000000  -0.250000000   0.250000000
          4   0.250000000   0.250000000   0.250000000
          5  -0.250000000  -0.250000000  -0.250000000
          6  -0.250000000  -0.250000000   0.250000000
          7  -0.250000000   0.250000000   0.250000000
          8   0.250000000   0.250000000  -0.250000000

     Diagonalizing the dynamical matrix

     q = (   -0.250000000   0.250000000  -0.250000000 ) 

 **************************************************************************
     freq (    1) =       3.269432 [THz] =     109.056517 [cm-1]
     freq (    2) =       3.269432 [THz] =     109.056517 [cm-1]
     freq (    3) =       7.061153 [THz] =     235.534700 [cm-1]
     freq (    4) =      14.506473 [THz] =     483.883840 [cm-1]
     freq (    5) =      14.862706 [THz] =     495.766508 [cm-1]
     freq (    6) =      14.862706 [THz] =     495.766508 [cm-1]
 **************************************************************************

     Mode symmetry, C_3v (3m)   point group:

     freq (  1 -  2) =        109.1  [cm-1]   --> E    L_3           
     freq (  3 -  3) =        235.5  [cm-1]   --> A_1  L_1           
     freq (  4 -  4) =        483.9  [cm-1]   --> A_1  L_1           
     freq (  5 -  6) =        495.8  [cm-1]   --> E    L_3           

     Calculation of q =    0.5000000  -0.5000000   0.5000000

   Info: using nr1, nr2, nr3 values from input

   Info: using nr1, nr2, nr3 values from input

     Parallelization info
     --------------------
     sticks:   dense  smooth     PW     G-vecs:    dense   smooth      PW
     Min          63      63     27                  682      682     186
     Max          64      64     28                  686      686     189
     Sum         253     253    109                 2733     2733     749



     bravais-lattice index     =            2
     lattice parameter (alat)  =      10.2600  a.u.
     unit-cell volume          =     270.0114 (a.u.)^3
     number of atoms/cell      =            2
     number of atomic types    =            1
     number of electrons       =         8.00
     number of Kohn-Sham states=            4
     kinetic-energy cutoff     =      18.0000  Ry
     charge density cutoff     =      72.0000  Ry
     Exchange-correlation      = SLA  PW   PBE  PBE ( 1  4  3  4 0 0)

     celldm(1)=  10.260000  celldm(2)=   0.000000  celldm(3)=   0.000000
     celldm(4)=   0.000000  celldm(5)=   0.000000  celldm(6)=   0.000000

     crystal axes: (cart. coord. in units of alat)
               a(1) = (  -0.500000   0.000000   0.500000 )  
               a(2) = (   0.000000   0.500000   0.500000 )  
               a(3) = (  -0.500000   0.500000   0.000000 )  

     reciprocal axes: (cart. coord. in units 2 pi/alat)
               b(1) = ( -1.000000 -1.000000  1.000000 )  
               b(2) = (  1.000000  1.000000  1.000000 )  
               b(3) = ( -1.000000  1.000000 -1.000000 )  


     PseudoPot. # 1 for Si read from file:
     /home/max/quantum_espresso/qe-6.1/pseudo/si_pbe_v1.uspp.F.UPF.txt
     MD5 check sum: a056efeee980c13900f22a371efd63c1
     Pseudo is Ultrasoft + core correction, Zval =  4.0
     Generated by new atomic code, or converted to UPF format
     Using radial grid of  899 points,  6 beta functions with: 
                l(1) =   0
                l(2) =   0
                l(3) =   1
                l(4) =   1
                l(5) =   2
                l(6) =   2
     Q(r) pseudized with  8 coefficients,  rinner =    0.900   0.900   0.900
                                                       0.900   0.900

     atomic species   valence    mass     pseudopotential
        Si             4.00    28.08600     Si( 1.00)

     48 Sym. Ops., with inversion, found



   Cartesian axes

     site n.     atom                  positions (alat units)
         1           Si  tau(   1) = (   0.0000000   0.0000000   0.0000000  )
         2           Si  tau(   2) = (   0.2500000   0.2500000   0.2500000  )

     number of k points=    60
                       cart. coord. in units 2pi/alat
        k(    1) = (  -0.1250000   0.1250000   0.1250000), wk =   0.0468750
        k(    2) = (   0.3750000  -0.3750000   0.6250000), wk =   0.0000000
        k(    3) = (  -0.3750000   0.3750000  -0.1250000), wk =   0.0468750
        k(    4) = (   0.1250000  -0.1250000   0.3750000), wk =   0.0000000
        k(    5) = (   0.3750000  -0.3750000   0.6250000), wk =   0.0468750
        k(    6) = (   0.8750000  -0.8750000   1.1250000), wk =   0.0000000
        k(    7) = (   0.1250000  -0.1250000   0.3750000), wk =   0.0468750
        k(    8) = (   0.6250000  -0.6250000   0.8750000), wk =   0.0000000
        k(    9) = (  -0.1250000   0.6250000   0.1250000), wk =   0.0937500
        k(   10) = (   0.3750000   0.1250000   0.6250000), wk =   0.0000000
        k(   11) = (   0.6250000  -0.1250000   0.8750000), wk =   0.0937500
        k(   12) = (   1.1250000  -0.6250000   1.3750000), wk =   0.0000000
        k(   13) = (   0.3750000   0.1250000   0.6250000), wk =   0.0937500
        k(   14) = (   0.8750000  -0.3750000   1.1250000), wk =   0.0000000
        k(   15) = (  -0.1250000  -0.8750000   0.1250000), wk =   0.0937500
        k(   16) = (   0.3750000  -1.3750000   0.6250000), wk =   0.0000000
        k(   17) = (  -0.3750000   0.3750000   0.3750000), wk =   0.0468750
        k(   18) = (   0.1250000  -0.1250000   0.8750000), wk =   0.0000000
        k(   19) = (   0.3750000  -0.3750000   1.1250000), wk =   0.0468750
        k(   20) = (   0.8750000  -0.8750000   1.6250000), wk =   0.0000000
        k(   21) = (   0.1250000  -0.1250000   0.1250000), wk =   0.0156250
        k(   22) = (   0.6250000  -0.6250000   0.6250000), wk =   0.0000000
        k(   23) = (  -0.3750000  -0.3750000  -0.1250000), wk =   0.0937500
        k(   24) = (   0.1250000  -0.8750000   0.3750000), wk =   0.0000000
        k(   25) = (  -0.1250000  -0.3750000   0.3750000), wk =   0.0468750
        k(   26) = (   0.3750000  -0.8750000   0.8750000), wk =   0.0000000
        k(   27) = (   0.3750000   0.3750000   0.6250000), wk =   0.0937500
        k(   28) = (   0.8750000  -0.1250000   1.1250000), wk =   0.0000000
        k(   29) = (   0.6250000   0.3750000  -0.3750000), wk =   0.0468750
        k(   30) = (   1.1250000  -0.1250000   0.1250000), wk =   0.0000000
        k(   31) = (   0.1250000   0.1250000   0.3750000), wk =   0.0937500
        k(   32) = (   0.6250000  -0.3750000   0.8750000), wk =   0.0000000
        k(   33) = (   0.3750000   0.1250000  -0.1250000), wk =   0.0468750
        k(   34) = (   0.8750000  -0.3750000   0.3750000), wk =   0.0000000
        k(   35) = (  -0.1250000  -0.6250000  -0.1250000), wk =   0.0468750
        k(   36) = (   0.3750000  -1.1250000   0.3750000), wk =   0.0000000
        k(   37) = (   0.1250000  -0.6250000   0.1250000), wk =   0.0468750
        k(   38) = (   0.6250000  -1.1250000   0.6250000), wk =   0.0000000
        k(   39) = (   0.6250000   0.1250000   0.8750000), wk =   0.0937500
        k(   40) = (   1.1250000  -0.3750000   1.3750000), wk =   0.0000000
        k(   41) = (  -0.8750000   0.1250000   0.6250000), wk =   0.0937500
        k(   42) = (  -0.3750000  -0.3750000   1.1250000), wk =   0.0000000
        k(   43) = (   0.8750000   0.1250000  -0.6250000), wk =   0.0937500
        k(   44) = (   1.3750000  -0.3750000  -0.1250000), wk =   0.0000000
        k(   45) = (   0.3750000  -0.1250000   0.6250000), wk =   0.0937500
        k(   46) = (   0.8750000  -0.6250000   1.1250000), wk =   0.0000000
        k(   47) = (  -0.6250000  -0.1250000   0.3750000), wk =   0.0937500
        k(   48) = (  -0.1250000  -0.6250000   0.8750000), wk =   0.0000000
        k(   49) = (   0.6250000  -0.1250000  -0.3750000), wk =   0.0937500
        k(   50) = (   1.1250000  -0.6250000   0.1250000), wk =   0.0000000
        k(   51) = (  -0.1250000   0.8750000  -0.1250000), wk =   0.0468750
        k(   52) = (   0.3750000   0.3750000   0.3750000), wk =   0.0000000
        k(   53) = (   0.1250000   0.8750000   0.1250000), wk =   0.0468750
        k(   54) = (   0.6250000   0.3750000   0.6250000), wk =   0.0000000
        k(   55) = (   0.3750000  -0.3750000   0.3750000), wk =   0.0156250
        k(   56) = (   0.8750000  -0.8750000   0.8750000), wk =   0.0000000
        k(   57) = (   0.3750000   0.3750000   1.1250000), wk =   0.0937500
        k(   58) = (   0.8750000  -0.1250000   1.6250000), wk =   0.0000000
        k(   59) = (   1.1250000   0.3750000  -0.3750000), wk =   0.0468750
        k(   60) = (   1.6250000  -0.1250000   0.1250000), wk =   0.0000000

     Dense  grid:     2733 G-vectors     FFT dimensions: (  20,  20,  20)

     Estimated max dynamical RAM per process >       0.32MB

     Estimated total allocated dynamical RAM >       1.30MB

     Check: negative/imaginary core charge=   -0.000005    0.000000

     The potential is recalculated from file :
     ./_ph0/silicon.10.26.save/charge-density.dat

     Starting wfc are    8 atomic wfcs

     Band Structure Calculation
     Davidson diagonalization with overlap

     ethr =  1.25E-10,  avg # of iterations = 11.6

     total cpu time spent up to now is        1.3 secs

     End of band structure calculation

          k =-0.1250 0.1250 0.1250 (   335 PWs)   bands (ev):

    -5.5527   4.6060   5.9146   5.9146

          k = 0.3750-0.3750 0.6250 (   350 PWs)   bands (ev):

    -3.3434  -0.5410   3.9266   4.6407

          k =-0.3750 0.3750-0.1250 (   345 PWs)   bands (ev):

    -4.5081   1.5779   3.8971   5.4277

          k = 0.1250-0.1250 0.3750 (   344 PWs)   bands (ev):

    -5.0161   2.9782   4.8855   4.9622

          k = 0.3750-0.3750 0.6250 (   350 PWs)   bands (ev):

    -3.3434  -0.5410   3.9266   4.6407

          k = 0.8750-0.8750 1.1250 (   335 PWs)   bands (ev):

    -5.5527   4.6060   5.9146   5.9146

          k = 0.1250-0.1250 0.3750 (   344 PWs)   bands (ev):

    -5.0161   2.9782   4.8855   4.9622

          k = 0.6250-0.6250 0.8750 (   345 PWs)   bands (ev):

    -4.5081   1.5779   3.8971   5.4277

          k =-0.1250 0.6250 0.1250 (   342 PWs)   bands (ev):

    -3.9663   1.2591   3.5377   3.9960

          k = 0.3750 0.1250 0.6250 (   348 PWs)   bands (ev):

    -3.5419   0.3613   2.8890   4.2762

          k = 0.6250-0.1250 0.8750 (   353 PWs)   bands (ev):

    -2.2935  -0.7328   2.1531   3.2491

          k = 1.1250-0.6250 1.3750 (   345 PWs)   bands (ev):

    -4.5081   1.5779   3.8971   5.4277

          k = 0.3750 0.1250 0.6250 (   348 PWs)   bands (ev):

    -3.5419   0.3613   2.8890   4.2762

          k = 0.8750-0.3750 1.1250 (   342 PWs)   bands (ev):

    -3.9663   1.2591   3.5377   3.9960

          k =-0.1250-0.8750 0.1250 (   348 PWs)   bands (ev):

    -2.4682  -0.6306   2.7744   3.5214

          k = 0.3750-1.3750 0.6250 (   350 PWs)   bands (ev):

    -3.3434  -0.5410   3.9266   4.6407

          k =-0.3750 0.3750 0.3750 (   353 PWs)   bands (ev):

    -4.0667   0.2593   5.1151   5.1151

          k = 0.1250-0.1250 0.8750 (   348 PWs)   bands (ev):

    -2.4682  -0.6306   2.7744   3.5214

          k = 0.3750-0.3750 1.1250 (   355 PWs)   bands (ev):

    -2.8393  -0.4383   2.2194   4.3169

          k = 0.8750-0.8750 1.6250 (   342 PWs)   bands (ev):

    -3.9663   1.2591   3.5377   3.9960

          k = 0.1250-0.1250 0.1250 (   335 PWs)   bands (ev):

    -5.5527   4.6060   5.9146   5.9146

          k = 0.6250-0.6250 0.6250 (   353 PWs)   bands (ev):

    -4.0667   0.2593   5.1151   5.1151

          k =-0.3750-0.3750-0.1250 (   345 PWs)   bands (ev):

    -4.5081   1.5779   3.8971   5.4277

          k = 0.1250-0.8750 0.3750 (   353 PWs)   bands (ev):

    -2.2935  -0.7328   2.1531   3.2491

          k =-0.1250-0.3750 0.3750 (   345 PWs)   bands (ev):

    -4.5081   1.5779   3.8971   5.4277

          k = 0.3750-0.8750 0.8750 (   342 PWs)   bands (ev):

    -3.9663   1.2591   3.5377   3.9960

          k = 0.3750 0.3750 0.6250 (   350 PWs)   bands (ev):

    -3.3434  -0.5410   3.9266   4.6407

          k = 0.8750-0.1250 1.1250 (   348 PWs)   bands (ev):

    -2.4682  -0.6306   2.7744   3.5214

          k = 0.6250 0.3750-0.3750 (   350 PWs)   bands (ev):

    -3.3434  -0.5410   3.9266   4.6407

          k = 1.1250-0.1250 0.1250 (   348 PWs)   bands (ev):

    -2.4682  -0.6306   2.7744   3.5214

          k = 0.1250 0.1250 0.3750 (   344 PWs)   bands (ev):

    -5.0161   2.9782   4.8855   4.9622

          k = 0.6250-0.3750 0.8750 (   348 PWs)   bands (ev):

    -3.5419   0.3613   2.8890   4.2762

          k = 0.3750 0.1250-0.1250 (   344 PWs)   bands (ev):

    -5.0161   2.9782   4.8855   4.9622

          k = 0.8750-0.3750 0.3750 (   355 PWs)   bands (ev):

    -2.8393  -0.4383   2.2194   4.3169

          k =-0.1250-0.6250-0.1250 (   342 PWs)   bands (ev):

    -3.9663   1.2591   3.5377   3.9960

          k = 0.3750-1.1250 0.3750 (   355 PWs)   bands (ev):

    -2.8393  -0.4383   2.2194   4.3169

          k = 0.1250-0.6250 0.1250 (   342 PWs)   bands (ev):

    -3.9663   1.2591   3.5377   3.9960

          k = 0.6250-1.1250 0.6250 (   345 PWs)   bands (ev):

    -4.5081   1.5779   3.8971   5.4277

          k = 0.6250 0.1250 0.8750 (   353 PWs)   bands (ev):

    -2.2935  -0.7328   2.1531   3.2491

          k = 1.1250-0.3750 1.3750 (   348 PWs)   bands (ev):

    -3.5419   0.3613   2.8890   4.2762

          k =-0.8750 0.1250 0.6250 (   353 PWs)   bands (ev):

    -2.2935  -0.7328   2.1531   3.2491

          k =-0.3750-0.3750 1.1250 (   355 PWs)   bands (ev):

    -2.8393  -0.4383   2.2194   4.3169

          k = 0.8750 0.1250-0.6250 (   353 PWs)   bands (ev):

    -2.2935  -0.7328   2.1531   3.2491

          k = 1.3750-0.3750-0.1250 (   348 PWs)   bands (ev):

    -3.5419   0.3613   2.8890   4.2762

          k = 0.3750-0.1250 0.6250 (   348 PWs)   bands (ev):

    -3.5419   0.3613   2.8890   4.2762

          k = 0.8750-0.6250 1.1250 (   344 PWs)   bands (ev):

    -5.0161   2.9782   4.8855   4.9622

          k =-0.6250-0.1250 0.3750 (   348 PWs)   bands (ev):

    -3.5419   0.3613   2.8890   4.2762

          k =-0.1250-0.6250 0.8750 (   353 PWs)   bands (ev):

    -2.2935  -0.7328   2.1531   3.2491

          k = 0.6250-0.1250-0.3750 (   348 PWs)   bands (ev):

    -3.5419   0.3613   2.8890   4.2762

          k = 1.1250-0.6250 0.1250 (   353 PWs)   bands (ev):

    -2.2935  -0.7328   2.1531   3.2491

          k =-0.1250 0.8750-0.1250 (   348 PWs)   bands (ev):

    -2.4682  -0.6306   2.7744   3.5214

          k = 0.3750 0.3750 0.3750 (   353 PWs)   bands (ev):

    -4.0667   0.2593   5.1151   5.1151

          k = 0.1250 0.8750 0.1250 (   348 PWs)   bands (ev):

    -2.4682  -0.6306   2.7744   3.5214

          k = 0.6250 0.3750 0.6250 (   350 PWs)   bands (ev):

    -3.3434  -0.5410   3.9266   4.6407

          k = 0.3750-0.3750 0.3750 (   353 PWs)   bands (ev):

    -4.0667   0.2593   5.1151   5.1151

          k = 0.8750-0.8750 0.8750 (   335 PWs)   bands (ev):

    -5.5527   4.6060   5.9146   5.9146

          k = 0.3750 0.3750 1.1250 (   355 PWs)   bands (ev):

    -2.8393  -0.4383   2.2194   4.3169

          k = 0.8750-0.1250 1.6250 (   353 PWs)   bands (ev):

    -2.2935  -0.7328   2.1531   3.2491

          k = 1.1250 0.3750-0.3750 (   355 PWs)   bands (ev):

    -2.8393  -0.4383   2.2194   4.3169

          k = 1.6250-0.1250 0.1250 (   344 PWs)   bands (ev):

    -5.0161   2.9782   4.8855   4.9622

     highest occupied level (ev):     5.9146

     Writing output data file silicon.10.26.save

                                                                                

     bravais-lattice index     =            2
     lattice parameter (alat)  =      10.2600  a.u.
     unit-cell volume          =     270.0114 (a.u.)^3
     number of atoms/cell      =            2
     number of atomic types    =            1
     kinetic-energy cut-off    =      18.0000  Ry
     charge density cut-off    =      72.0000  Ry
     convergence threshold     =      1.0E-12
     beta                      =       0.7000
     number of iterations used =            4
     Exchange-correlation      = SLA  PW   PBE  PBE ( 1  4  3  4 0 0)


     celldm(1)=   10.26000  celldm(2)=    0.00000  celldm(3)=    0.00000
     celldm(4)=    0.00000  celldm(5)=    0.00000  celldm(6)=    0.00000

     crystal axes: (cart. coord. in units of alat)
               a(1) = ( -0.5000  0.0000  0.5000 )  
               a(2) = (  0.0000  0.5000  0.5000 )  
               a(3) = ( -0.5000  0.5000  0.0000 )  

     reciprocal axes: (cart. coord. in units 2 pi/alat)
               b(1) = ( -1.0000 -1.0000  1.0000 )  
               b(2) = (  1.0000  1.0000  1.0000 )  
               b(3) = ( -1.0000  1.0000 -1.0000 )  


     Atoms inside the unit cell: 

     Cartesian axes

     site n.  atom      mass           positions (alat units)
        1     Si  28.0860   tau(    1) = (    0.00000    0.00000    0.00000  )
        2     Si  28.0860   tau(    2) = (    0.25000    0.25000    0.25000  )

     Computing dynamical matrix for 
                    q = (   0.5000000  -0.5000000   0.5000000 )

     13 Sym.Ops. (with q -> -q+G )


     G cutoff =  191.9851  (    683 G-vectors)     FFT grid: ( 20, 20, 20)
     number of k points=    60

     PseudoPot. # 1 for Si read from file:
     /home/max/quantum_espresso/qe-6.1/pseudo/si_pbe_v1.uspp.F.UPF.txt
     MD5 check sum: a056efeee980c13900f22a371efd63c1
     Pseudo is Ultrasoft + core correction, Zval =  4.0
     Generated by new atomic code, or converted to UPF format
     Using radial grid of  899 points,  6 beta functions with: 
                l(1) =   0
                l(2) =   0
                l(3) =   1
                l(4) =   1
                l(5) =   2
                l(6) =   2
     Q(r) pseudized with  8 coefficients,  rinner =    0.900   0.900   0.900
                                                       0.900   0.900


     Atomic displacements:
     There are   4 irreducible representations

     Representation     1      1 modes -  To be done

     Representation     2      1 modes -  To be done

     Representation     3      2 modes -  To be done

     Representation     4      2 modes -  To be done



     Alpha used in Ewald sum =   0.7000
     PHONON       :    14.28s CPU        14.91s WALL



     Representation #  1 mode #   1

     Self-consistent Calculation

      iter #   1 total cpu time :    15.0 secs   av.it.:   4.8
      thresh= 1.000E-02 alpha_mix =  0.700 |ddv_scf|^2 =  2.522E-05

      iter #   2 total cpu time :    15.2 secs   av.it.:   8.3
      thresh= 5.022E-04 alpha_mix =  0.700 |ddv_scf|^2 =  2.213E-05

      iter #   3 total cpu time :    15.3 secs   av.it.:   7.5
      thresh= 4.704E-04 alpha_mix =  0.700 |ddv_scf|^2 =  3.850E-08

      iter #   4 total cpu time :    15.4 secs   av.it.:   7.6
      thresh= 1.962E-05 alpha_mix =  0.700 |ddv_scf|^2 =  1.423E-10

      iter #   5 total cpu time :    15.6 secs   av.it.:   7.9
      thresh= 1.193E-06 alpha_mix =  0.700 |ddv_scf|^2 =  3.692E-12

      iter #   6 total cpu time :    15.7 secs   av.it.:   7.8
      thresh= 1.921E-07 alpha_mix =  0.700 |ddv_scf|^2 =  5.215E-14

     End of self-consistent calculation

     Convergence has been achieved 


     Representation #  2 mode #   2

     Self-consistent Calculation

      iter #   1 total cpu time :    15.8 secs   av.it.:   5.6
      thresh= 1.000E-02 alpha_mix =  0.700 |ddv_scf|^2 =  3.533E-04

      iter #   2 total cpu time :    16.0 secs   av.it.:   8.3
      thresh= 1.880E-03 alpha_mix =  0.700 |ddv_scf|^2 =  1.084E-03

      iter #   3 total cpu time :    16.1 secs   av.it.:   7.1
      thresh= 3.292E-03 alpha_mix =  0.700 |ddv_scf|^2 =  1.132E-07

      iter #   4 total cpu time :    16.2 secs   av.it.:   8.1
      thresh= 3.364E-05 alpha_mix =  0.700 |ddv_scf|^2 =  6.766E-09

      iter #   5 total cpu time :    16.4 secs   av.it.:   8.5
      thresh= 8.226E-06 alpha_mix =  0.700 |ddv_scf|^2 =  1.286E-10

      iter #   6 total cpu time :    16.5 secs   av.it.:   8.3
      thresh= 1.134E-06 alpha_mix =  0.700 |ddv_scf|^2 =  2.051E-12

      iter #   7 total cpu time :    16.7 secs   av.it.:   7.8
      thresh= 1.432E-07 alpha_mix =  0.700 |ddv_scf|^2 =  4.362E-15

     End of self-consistent calculation

     Convergence has been achieved 


     Representation #  3 modes #   3  4

     Self-consistent Calculation

      iter #   1 total cpu time :    16.9 secs   av.it.:   4.7
      thresh= 1.000E-02 alpha_mix =  0.700 |ddv_scf|^2 =  3.081E-07

      iter #   2 total cpu time :    17.2 secs   av.it.:   9.1
      thresh= 5.551E-05 alpha_mix =  0.700 |ddv_scf|^2 =  2.532E-08

      iter #   3 total cpu time :    17.5 secs   av.it.:   8.3
      thresh= 1.591E-05 alpha_mix =  0.700 |ddv_scf|^2 =  4.812E-10

      iter #   4 total cpu time :    17.7 secs   av.it.:   8.9
      thresh= 2.194E-06 alpha_mix =  0.700 |ddv_scf|^2 =  5.962E-12

      iter #   5 total cpu time :    18.0 secs   av.it.:   8.7
      thresh= 2.442E-07 alpha_mix =  0.700 |ddv_scf|^2 =  2.993E-14

     End of self-consistent calculation

     Convergence has been achieved 


     Representation #  4 modes #   5  6

     Self-consistent Calculation

      iter #   1 total cpu time :    18.2 secs   av.it.:   5.0
      thresh= 1.000E-02 alpha_mix =  0.700 |ddv_scf|^2 =  9.790E-07

      iter #   2 total cpu time :    18.6 secs   av.it.:   9.5
      thresh= 9.894E-05 alpha_mix =  0.700 |ddv_scf|^2 =  7.653E-08

      iter #   3 total cpu time :    18.8 secs   av.it.:   9.4
      thresh= 2.766E-05 alpha_mix =  0.700 |ddv_scf|^2 =  4.789E-09

      iter #   4 total cpu time :    19.1 secs   av.it.:   8.5
      thresh= 6.920E-06 alpha_mix =  0.700 |ddv_scf|^2 =  6.186E-12

      iter #   5 total cpu time :    19.4 secs   av.it.:   8.8
      thresh= 2.487E-07 alpha_mix =  0.700 |ddv_scf|^2 =  2.105E-14

     End of self-consistent calculation

     Convergence has been achieved 

     Number of q in the star =    4
     List of q in the star:
          1   0.500000000  -0.500000000   0.500000000
          2   0.500000000   0.500000000   0.500000000
          3  -0.500000000   0.500000000   0.500000000
          4   0.500000000   0.500000000  -0.500000000

     Diagonalizing the dynamical matrix

     q = (    0.500000000  -0.500000000   0.500000000 ) 

 **************************************************************************
     freq (    1) =       4.515236 [THz] =     150.612069 [cm-1]
     freq (    2) =       4.515236 [THz] =     150.612069 [cm-1]
     freq (    3) =      11.713955 [THz] =     390.735486 [cm-1]
     freq (    4) =      12.508112 [THz] =     417.225702 [cm-1]
     freq (    5) =      14.831886 [THz] =     494.738468 [cm-1]
     freq (    6) =      14.831886 [THz] =     494.738468 [cm-1]
 **************************************************************************

     Calculation of q =    0.0000000   0.5000000   0.0000000

   Info: using nr1, nr2, nr3 values from input

   Info: using nr1, nr2, nr3 values from input

     Parallelization info
     --------------------
     sticks:   dense  smooth     PW     G-vecs:    dense   smooth      PW
     Min          63      63     24                  682      682     161
     Max          64      64     25                  686      686     162
     Sum         253     253     97                 2733     2733     645



     bravais-lattice index     =            2
     lattice parameter (alat)  =      10.2600  a.u.
     unit-cell volume          =     270.0114 (a.u.)^3
     number of atoms/cell      =            2
     number of atomic types    =            1
     number of electrons       =         8.00
     number of Kohn-Sham states=            4
     kinetic-energy cutoff     =      18.0000  Ry
     charge density cutoff     =      72.0000  Ry
     Exchange-correlation      = SLA  PW   PBE  PBE ( 1  4  3  4 0 0)

     celldm(1)=  10.260000  celldm(2)=   0.000000  celldm(3)=   0.000000
     celldm(4)=   0.000000  celldm(5)=   0.000000  celldm(6)=   0.000000

     crystal axes: (cart. coord. in units of alat)
               a(1) = (  -0.500000   0.000000   0.500000 )  
               a(2) = (   0.000000   0.500000   0.500000 )  
               a(3) = (  -0.500000   0.500000   0.000000 )  

     reciprocal axes: (cart. coord. in units 2 pi/alat)
               b(1) = ( -1.000000 -1.000000  1.000000 )  
               b(2) = (  1.000000  1.000000  1.000000 )  
               b(3) = ( -1.000000  1.000000 -1.000000 )  


     PseudoPot. # 1 for Si read from file:
     /home/max/quantum_espresso/qe-6.1/pseudo/si_pbe_v1.uspp.F.UPF.txt
     MD5 check sum: a056efeee980c13900f22a371efd63c1
     Pseudo is Ultrasoft + core correction, Zval =  4.0
     Generated by new atomic code, or converted to UPF format
     Using radial grid of  899 points,  6 beta functions with: 
                l(1) =   0
                l(2) =   0
                l(3) =   1
                l(4) =   1
                l(5) =   2
                l(6) =   2
     Q(r) pseudized with  8 coefficients,  rinner =    0.900   0.900   0.900
                                                       0.900   0.900

     atomic species   valence    mass     pseudopotential
        Si             4.00    28.08600     Si( 1.00)

     48 Sym. Ops., with inversion, found



   Cartesian axes

     site n.     atom                  positions (alat units)
         1           Si  tau(   1) = (   0.0000000   0.0000000   0.0000000  )
         2           Si  tau(   2) = (   0.2500000   0.2500000   0.2500000  )

     number of k points=    80
                       cart. coord. in units 2pi/alat
        k(    1) = (  -0.1250000   0.1250000   0.1250000), wk =   0.0312500
        k(    2) = (  -0.1250000   0.6250000   0.1250000), wk =   0.0000000
        k(    3) = (  -0.3750000   0.3750000  -0.1250000), wk =   0.0625000
        k(    4) = (  -0.3750000   0.8750000  -0.1250000), wk =   0.0000000
        k(    5) = (   0.3750000  -0.3750000   0.6250000), wk =   0.0625000
        k(    6) = (   0.3750000   0.1250000   0.6250000), wk =   0.0000000
        k(    7) = (   0.1250000  -0.1250000   0.3750000), wk =   0.0625000
        k(    8) = (   0.1250000   0.3750000   0.3750000), wk =   0.0000000
        k(    9) = (  -0.1250000   0.6250000   0.1250000), wk =   0.0312500
        k(   10) = (  -0.1250000   1.1250000   0.1250000), wk =   0.0000000
        k(   11) = (   0.6250000  -0.1250000   0.8750000), wk =   0.0625000
        k(   12) = (   0.6250000   0.3750000   0.8750000), wk =   0.0000000
        k(   13) = (   0.3750000   0.1250000   0.6250000), wk =   0.0625000
        k(   14) = (   0.3750000   0.6250000   0.6250000), wk =   0.0000000
        k(   15) = (  -0.1250000  -0.8750000   0.1250000), wk =   0.0312500
        k(   16) = (  -0.1250000  -0.3750000   0.1250000), wk =   0.0000000
        k(   17) = (  -0.3750000   0.3750000   0.3750000), wk =   0.0312500
        k(   18) = (  -0.3750000   0.8750000   0.3750000), wk =   0.0000000
        k(   19) = (   0.3750000  -0.3750000   1.1250000), wk =   0.0625000
        k(   20) = (   0.3750000   0.1250000   1.1250000), wk =   0.0000000
        k(   21) = (  -0.1250000  -0.1250000   0.1250000), wk =   0.0312500
        k(   22) = (  -0.1250000   0.3750000   0.1250000), wk =   0.0000000
        k(   23) = (   0.1250000  -0.3750000   0.3750000), wk =   0.0625000
        k(   24) = (   0.1250000   0.1250000   0.3750000), wk =   0.0000000
        k(   25) = (   0.3750000  -0.1250000   0.3750000), wk =   0.0312500
        k(   26) = (   0.3750000   0.3750000   0.3750000), wk =   0.0000000
        k(   27) = (   0.3750000   0.1250000   0.3750000), wk =   0.0312500
        k(   28) = (   0.3750000   0.6250000   0.3750000), wk =   0.0000000
        k(   29) = (  -0.6250000   0.3750000  -0.3750000), wk =   0.0625000
        k(   30) = (  -0.6250000   0.8750000  -0.3750000), wk =   0.0000000
        k(   31) = (  -0.3750000   0.6250000  -0.3750000), wk =   0.0312500
        k(   32) = (  -0.3750000   1.1250000  -0.3750000), wk =   0.0000000
        k(   33) = (  -0.3750000  -0.6250000  -0.3750000), wk =   0.0312500
        k(   34) = (  -0.3750000  -0.1250000  -0.3750000), wk =   0.0000000
        k(   35) = (  -0.3750000   0.1250000  -0.1250000), wk =   0.0625000
        k(   36) = (  -0.3750000   0.6250000  -0.1250000), wk =   0.0000000
        k(   37) = (  -0.1250000   0.3750000  -0.1250000), wk =   0.0312500
        k(   38) = (  -0.1250000   0.8750000  -0.1250000), wk =   0.0000000
        k(   39) = (  -0.1250000  -0.3750000  -0.1250000), wk =   0.0312500
        k(   40) = (  -0.1250000   0.1250000  -0.1250000), wk =   0.0000000
        k(   41) = (  -0.1250000  -0.6250000   0.1250000), wk =   0.0312500
        k(   42) = (  -0.1250000  -0.1250000   0.1250000), wk =   0.0000000
        k(   43) = (   0.6250000  -0.1250000  -0.1250000), wk =   0.0625000
        k(   44) = (   0.6250000   0.3750000  -0.1250000), wk =   0.0000000
        k(   45) = (   0.6250000   0.1250000   0.1250000), wk =   0.0625000
        k(   46) = (   0.6250000   0.6250000   0.1250000), wk =   0.0000000
        k(   47) = (  -0.8750000   0.1250000  -0.6250000), wk =   0.0625000
        k(   48) = (  -0.8750000   0.6250000  -0.6250000), wk =   0.0000000
        k(   49) = (  -0.1250000   0.6250000  -0.8750000), wk =   0.0625000
        k(   50) = (  -0.1250000   1.1250000  -0.8750000), wk =   0.0000000
        k(   51) = (  -0.1250000   0.8750000  -0.6250000), wk =   0.0625000
        k(   52) = (  -0.1250000   1.3750000  -0.6250000), wk =   0.0000000
        k(   53) = (  -0.1250000  -0.8750000  -0.6250000), wk =   0.0625000
        k(   54) = (  -0.1250000  -0.3750000  -0.6250000), wk =   0.0000000
        k(   55) = (   0.8750000  -0.6250000   0.1250000), wk =   0.0625000
        k(   56) = (   0.8750000  -0.1250000   0.1250000), wk =   0.0000000
        k(   57) = (  -0.6250000  -0.1250000  -0.3750000), wk =   0.0625000
        k(   58) = (  -0.6250000   0.3750000  -0.3750000), wk =   0.0000000
        k(   59) = (   0.1250000   0.3750000  -0.6250000), wk =   0.0625000
        k(   60) = (   0.1250000   0.8750000  -0.6250000), wk =   0.0000000
        k(   61) = (   0.1250000   0.6250000  -0.3750000), wk =   0.0625000
        k(   62) = (   0.1250000   1.1250000  -0.3750000), wk =   0.0000000
        k(   63) = (   0.1250000  -0.6250000  -0.3750000), wk =   0.0625000
        k(   64) = (   0.1250000  -0.1250000  -0.3750000), wk =   0.0000000
        k(   65) = (   0.6250000  -0.3750000  -0.1250000), wk =   0.0625000
        k(   66) = (   0.6250000   0.1250000  -0.1250000), wk =   0.0000000
        k(   67) = (  -0.1250000   0.8750000   0.1250000), wk =   0.0312500
        k(   68) = (  -0.1250000   1.3750000   0.1250000), wk =   0.0000000
        k(   69) = (  -0.8750000  -0.1250000  -0.1250000), wk =   0.0625000
        k(   70) = (  -0.8750000   0.3750000  -0.1250000), wk =   0.0000000
        k(   71) = (  -0.8750000   0.1250000   0.1250000), wk =   0.0625000
        k(   72) = (  -0.8750000   0.6250000   0.1250000), wk =   0.0000000
        k(   73) = (  -0.3750000  -0.3750000   0.3750000), wk =   0.0312500
        k(   74) = (  -0.3750000   0.1250000   0.3750000), wk =   0.0000000
        k(   75) = (  -1.1250000   0.3750000  -0.3750000), wk =   0.0625000
        k(   76) = (  -1.1250000   0.8750000  -0.3750000), wk =   0.0000000
        k(   77) = (  -0.3750000   1.1250000  -0.3750000), wk =   0.0312500
        k(   78) = (  -0.3750000   1.6250000  -0.3750000), wk =   0.0000000
        k(   79) = (  -0.3750000  -1.1250000  -0.3750000), wk =   0.0312500
        k(   80) = (  -0.3750000  -0.6250000  -0.3750000), wk =   0.0000000

     Dense  grid:     2733 G-vectors     FFT dimensions: (  20,  20,  20)

     Estimated max dynamical RAM per process >       0.32MB

     Estimated total allocated dynamical RAM >       1.30MB

     Check: negative/imaginary core charge=   -0.000005    0.000000

     The potential is recalculated from file :
     ./_ph0/silicon.10.26.save/charge-density.dat

     Starting wfc are    8 atomic wfcs

     Band Structure Calculation
     Davidson diagonalization with overlap

     ethr =  1.25E-10,  avg # of iterations = 11.6

     total cpu time spent up to now is        1.9 secs

     End of band structure calculation

          k =-0.1250 0.1250 0.1250 (   335 PWs)   bands (ev):

    -5.5527   4.6060   5.9146   5.9146

          k =-0.1250 0.6250 0.1250 (   342 PWs)   bands (ev):

    -3.9663   1.2591   3.5377   3.9960

          k =-0.3750 0.3750-0.1250 (   345 PWs)   bands (ev):

    -4.5081   1.5779   3.8971   5.4277

          k =-0.3750 0.8750-0.1250 (   353 PWs)   bands (ev):

    -2.2935  -0.7328   2.1531   3.2491

          k = 0.3750-0.3750 0.6250 (   350 PWs)   bands (ev):

    -3.3434  -0.5410   3.9266   4.6407

          k = 0.3750 0.1250 0.6250 (   348 PWs)   bands (ev):

    -3.5419   0.3613   2.8890   4.2762

          k = 0.1250-0.1250 0.3750 (   344 PWs)   bands (ev):

    -5.0161   2.9782   4.8855   4.9622

          k = 0.1250 0.3750 0.3750 (   345 PWs)   bands (ev):

    -4.5081   1.5779   3.8971   5.4277

          k =-0.1250 0.6250 0.1250 (   342 PWs)   bands (ev):

    -3.9663   1.2591   3.5377   3.9960

          k =-0.1250 1.1250 0.1250 (   348 PWs)   bands (ev):

    -2.4682  -0.6306   2.7744   3.5214

          k = 0.6250-0.1250 0.8750 (   353 PWs)   bands (ev):

    -2.2935  -0.7328   2.1531   3.2491

          k = 0.6250 0.3750 0.8750 (   348 PWs)   bands (ev):

    -3.5419   0.3613   2.8890   4.2762

          k = 0.3750 0.1250 0.6250 (   348 PWs)   bands (ev):

    -3.5419   0.3613   2.8890   4.2762

          k = 0.3750 0.6250 0.6250 (   350 PWs)   bands (ev):

    -3.3434  -0.5410   3.9266   4.6407

          k =-0.1250-0.8750 0.1250 (   348 PWs)   bands (ev):

    -2.4682  -0.6306   2.7744   3.5214

          k =-0.1250-0.3750 0.1250 (   344 PWs)   bands (ev):

    -5.0161   2.9782   4.8855   4.9622

          k =-0.3750 0.3750 0.3750 (   353 PWs)   bands (ev):

    -4.0667   0.2593   5.1151   5.1151

          k =-0.3750 0.8750 0.3750 (   355 PWs)   bands (ev):

    -2.8393  -0.4383   2.2194   4.3169

          k = 0.3750-0.3750 1.1250 (   355 PWs)   bands (ev):

    -2.8393  -0.4383   2.2194   4.3169

          k = 0.3750 0.1250 1.1250 (   353 PWs)   bands (ev):

    -2.2935  -0.7328   2.1531   3.2491

          k =-0.1250-0.1250 0.1250 (   335 PWs)   bands (ev):

    -5.5527   4.6060   5.9146   5.9146

          k =-0.1250 0.3750 0.1250 (   344 PWs)   bands (ev):

    -5.0161   2.9782   4.8855   4.9622

          k = 0.1250-0.3750 0.3750 (   345 PWs)   bands (ev):

    -4.5081   1.5779   3.8971   5.4277

          k = 0.1250 0.1250 0.3750 (   344 PWs)   bands (ev):

    -5.0161   2.9782   4.8855   4.9622

          k = 0.3750-0.1250 0.3750 (   345 PWs)   bands (ev):

    -4.5081   1.5779   3.8971   5.4277

          k = 0.3750 0.3750 0.3750 (   353 PWs)   bands (ev):

    -4.0667   0.2593   5.1151   5.1151

          k = 0.3750 0.1250 0.3750 (   345 PWs)   bands (ev):

    -4.5081   1.5779   3.8971   5.4277

          k = 0.3750 0.6250 0.3750 (   350 PWs)   bands (ev):

    -3.3434  -0.5410   3.9266   4.6407

          k =-0.6250 0.3750-0.3750 (   350 PWs)   bands (ev):

    -3.3434  -0.5410   3.9266   4.6407

          k =-0.6250 0.8750-0.3750 (   348 PWs)   bands (ev):

    -3.5419   0.3613   2.8890   4.2762

          k =-0.3750 0.6250-0.3750 (   350 PWs)   bands (ev):

    -3.3434  -0.5410   3.9266   4.6407

          k =-0.3750 1.1250-0.3750 (   355 PWs)   bands (ev):

    -2.8393  -0.4383   2.2194   4.3169

          k =-0.3750-0.6250-0.3750 (   350 PWs)   bands (ev):

    -3.3434  -0.5410   3.9266   4.6407

          k =-0.3750-0.1250-0.3750 (   345 PWs)   bands (ev):

    -4.5081   1.5779   3.8971   5.4277

          k =-0.3750 0.1250-0.1250 (   344 PWs)   bands (ev):

    -5.0161   2.9782   4.8855   4.9622

          k =-0.3750 0.6250-0.1250 (   348 PWs)   bands (ev):

    -3.5419   0.3613   2.8890   4.2762

          k =-0.1250 0.3750-0.1250 (   344 PWs)   bands (ev):

    -5.0161   2.9782   4.8855   4.9622

          k =-0.1250 0.8750-0.1250 (   348 PWs)   bands (ev):

    -2.4682  -0.6306   2.7744   3.5214

          k =-0.1250-0.3750-0.1250 (   344 PWs)   bands (ev):

    -5.0161   2.9782   4.8855   4.9622

          k =-0.1250 0.1250-0.1250 (   335 PWs)   bands (ev):

    -5.5527   4.6060   5.9146   5.9146

          k =-0.1250-0.6250 0.1250 (   342 PWs)   bands (ev):

    -3.9663   1.2591   3.5377   3.9960

          k =-0.1250-0.1250 0.1250 (   335 PWs)   bands (ev):

    -5.5527   4.6060   5.9146   5.9146

          k = 0.6250-0.1250-0.1250 (   342 PWs)   bands (ev):

    -3.9663   1.2591   3.5377   3.9960

          k = 0.6250 0.3750-0.1250 (   348 PWs)   bands (ev):

    -3.5419   0.3613   2.8890   4.2762

          k = 0.6250 0.1250 0.1250 (   342 PWs)   bands (ev):

    -3.9663   1.2591   3.5377   3.9960

          k = 0.6250 0.6250 0.1250 (   355 PWs)   bands (ev):

    -2.8393  -0.4383   2.2194   4.3169

          k =-0.8750 0.1250-0.6250 (   353 PWs)   bands (ev):

    -2.2935  -0.7328   2.1531   3.2491

          k =-0.8750 0.6250-0.6250 (   345 PWs)   bands (ev):

    -4.5081   1.5779   3.8971   5.4277

          k =-0.1250 0.6250-0.8750 (   353 PWs)   bands (ev):

    -2.2935  -0.7328   2.1531   3.2491

          k =-0.1250 1.1250-0.8750 (   348 PWs)   bands (ev):

    -2.4682  -0.6306   2.7744   3.5214

          k =-0.1250 0.8750-0.6250 (   353 PWs)   bands (ev):

    -2.2935  -0.7328   2.1531   3.2491

          k =-0.1250 1.3750-0.6250 (   355 PWs)   bands (ev):

    -2.8393  -0.4383   2.2194   4.3169

          k =-0.1250-0.8750-0.6250 (   353 PWs)   bands (ev):

    -2.2935  -0.7328   2.1531   3.2491

          k =-0.1250-0.3750-0.6250 (   348 PWs)   bands (ev):

    -3.5419   0.3613   2.8890   4.2762

          k = 0.8750-0.6250 0.1250 (   353 PWs)   bands (ev):

    -2.2935  -0.7328   2.1531   3.2491

          k = 0.8750-0.1250 0.1250 (   348 PWs)   bands (ev):

    -2.4682  -0.6306   2.7744   3.5214

          k =-0.6250-0.1250-0.3750 (   348 PWs)   bands (ev):

    -3.5419   0.3613   2.8890   4.2762

          k =-0.6250 0.3750-0.3750 (   350 PWs)   bands (ev):

    -3.3434  -0.5410   3.9266   4.6407

          k = 0.1250 0.3750-0.6250 (   348 PWs)   bands (ev):

    -3.5419   0.3613   2.8890   4.2762

          k = 0.1250 0.8750-0.6250 (   353 PWs)   bands (ev):

    -2.2935  -0.7328   2.1531   3.2491

          k = 0.1250 0.6250-0.3750 (   348 PWs)   bands (ev):

    -3.5419   0.3613   2.8890   4.2762

          k = 0.1250 1.1250-0.3750 (   353 PWs)   bands (ev):

    -2.2935  -0.7328   2.1531   3.2491

          k = 0.1250-0.6250-0.3750 (   348 PWs)   bands (ev):

    -3.5419   0.3613   2.8890   4.2762

          k = 0.1250-0.1250-0.3750 (   344 PWs)   bands (ev):

    -5.0161   2.9782   4.8855   4.9622

          k = 0.6250-0.3750-0.1250 (   348 PWs)   bands (ev):

    -3.5419   0.3613   2.8890   4.2762

          k = 0.6250 0.1250-0.1250 (   342 PWs)   bands (ev):

    -3.9663   1.2591   3.5377   3.9960

          k =-0.1250 0.8750 0.1250 (   348 PWs)   bands (ev):

    -2.4682  -0.6306   2.7744   3.5214

          k =-0.1250 1.3750 0.1250 (   342 PWs)   bands (ev):

    -3.9663   1.2591   3.5377   3.9960

          k =-0.8750-0.1250-0.1250 (   348 PWs)   bands (ev):

    -2.4682  -0.6306   2.7744   3.5214

          k =-0.8750 0.3750-0.1250 (   353 PWs)   bands (ev):

    -2.2935  -0.7328   2.1531   3.2491

          k =-0.8750 0.1250 0.1250 (   348 PWs)   bands (ev):

    -2.4682  -0.6306   2.7744   3.5214

          k =-0.8750 0.6250 0.1250 (   353 PWs)   bands (ev):

    -2.2935  -0.7328   2.1531   3.2491

          k =-0.3750-0.3750 0.3750 (   353 PWs)   bands (ev):

    -4.0667   0.2593   5.1151   5.1151

          k =-0.3750 0.1250 0.3750 (   345 PWs)   bands (ev):

    -4.5081   1.5779   3.8971   5.4277

          k =-1.1250 0.3750-0.3750 (   355 PWs)   bands (ev):

    -2.8393  -0.4383   2.2194   4.3169

          k =-1.1250 0.8750-0.3750 (   342 PWs)   bands (ev):

    -3.9663   1.2591   3.5377   3.9960

          k =-0.3750 1.1250-0.3750 (   355 PWs)   bands (ev):

    -2.8393  -0.4383   2.2194   4.3169

          k =-0.3750 1.6250-0.3750 (   353 PWs)   bands (ev):

    -4.0667   0.2593   5.1151   5.1151

          k =-0.3750-1.1250-0.3750 (   355 PWs)   bands (ev):

    -2.8393  -0.4383   2.2194   4.3169

          k =-0.3750-0.6250-0.3750 (   350 PWs)   bands (ev):

    -3.3434  -0.5410   3.9266   4.6407

     highest occupied level (ev):     5.9146

     Writing output data file silicon.10.26.save

                                                                                

     bravais-lattice index     =            2
     lattice parameter (alat)  =      10.2600  a.u.
     unit-cell volume          =     270.0114 (a.u.)^3
     number of atoms/cell      =            2
     number of atomic types    =            1
     kinetic-energy cut-off    =      18.0000  Ry
     charge density cut-off    =      72.0000  Ry
     convergence threshold     =      1.0E-12
     beta                      =       0.7000
     number of iterations used =            4
     Exchange-correlation      = SLA  PW   PBE  PBE ( 1  4  3  4 0 0)


     celldm(1)=   10.26000  celldm(2)=    0.00000  celldm(3)=    0.00000
     celldm(4)=    0.00000  celldm(5)=    0.00000  celldm(6)=    0.00000

     crystal axes: (cart. coord. in units of alat)
               a(1) = ( -0.5000  0.0000  0.5000 )  
               a(2) = (  0.0000  0.5000  0.5000 )  
               a(3) = ( -0.5000  0.5000  0.0000 )  

     reciprocal axes: (cart. coord. in units 2 pi/alat)
               b(1) = ( -1.0000 -1.0000  1.0000 )  
               b(2) = (  1.0000  1.0000  1.0000 )  
               b(3) = ( -1.0000  1.0000 -1.0000 )  


     Atoms inside the unit cell: 

     Cartesian axes

     site n.  atom      mass           positions (alat units)
        1     Si  28.0860   tau(    1) = (    0.00000    0.00000    0.00000  )
        2     Si  28.0860   tau(    2) = (    0.25000    0.25000    0.25000  )

     Computing dynamical matrix for 
                    q = (   0.0000000   0.5000000   0.0000000 )

      8 Sym.Ops. (no q -> -q+G )


     G cutoff =  191.9851  (    683 G-vectors)     FFT grid: ( 20, 20, 20)
     number of k points=    80

     PseudoPot. # 1 for Si read from file:
     /home/max/quantum_espresso/qe-6.1/pseudo/si_pbe_v1.uspp.F.UPF.txt
     MD5 check sum: a056efeee980c13900f22a371efd63c1
     Pseudo is Ultrasoft + core correction, Zval =  4.0
     Generated by new atomic code, or converted to UPF format
     Using radial grid of  899 points,  6 beta functions with: 
                l(1) =   0
                l(2) =   0
                l(3) =   1
                l(4) =   1
                l(5) =   2
                l(6) =   2
     Q(r) pseudized with  8 coefficients,  rinner =    0.900   0.900   0.900
                                                       0.900   0.900

     Mode symmetry, C_4v (4mm)  point group:


     Atomic displacements:
     There are   4 irreducible representations

     Representation     1      1 modes -A_1  G_1 D_1  To be done

     Representation     2      1 modes -B_2  G_4 D_2'  To be done

     Representation     3      2 modes -E    G_5 D_5  To be done

     Representation     4      2 modes -E    G_5 D_5  To be done



     Alpha used in Ewald sum =   0.7000
     PHONON       :    19.45s CPU        20.29s WALL



     Representation #  1 mode #   1

     Self-consistent Calculation

      iter #   1 total cpu time :    20.4 secs   av.it.:   5.8
      thresh= 1.000E-02 alpha_mix =  0.700 |ddv_scf|^2 =  3.033E-03

      iter #   2 total cpu time :    20.6 secs   av.it.:   7.6
      thresh= 5.507E-03 alpha_mix =  0.700 |ddv_scf|^2 =  3.953E-02

      iter #   3 total cpu time :    20.8 secs   av.it.:   6.7
      thresh= 1.000E-02 alpha_mix =  0.700 |ddv_scf|^2 =  1.384E-07

      iter #   4 total cpu time :    20.9 secs   av.it.:   8.2
      thresh= 3.720E-05 alpha_mix =  0.700 |ddv_scf|^2 =  1.240E-08

      iter #   5 total cpu time :    21.1 secs   av.it.:   7.8
      thresh= 1.114E-05 alpha_mix =  0.700 |ddv_scf|^2 =  7.508E-10

      iter #   6 total cpu time :    21.3 secs   av.it.:   7.8
      thresh= 2.740E-06 alpha_mix =  0.700 |ddv_scf|^2 =  2.888E-12

      iter #   7 total cpu time :    21.5 secs   av.it.:   7.9
      thresh= 1.699E-07 alpha_mix =  0.700 |ddv_scf|^2 =  5.607E-13

     End of self-consistent calculation

     Convergence has been achieved 


     Representation #  2 mode #   2

     Self-consistent Calculation

      iter #   1 total cpu time :    21.6 secs   av.it.:   4.9
      thresh= 1.000E-02 alpha_mix =  0.700 |ddv_scf|^2 =  5.441E-06

      iter #   2 total cpu time :    21.8 secs   av.it.:   8.6
      thresh= 2.333E-04 alpha_mix =  0.700 |ddv_scf|^2 =  1.290E-06

      iter #   3 total cpu time :    22.0 secs   av.it.:   8.5
      thresh= 1.136E-04 alpha_mix =  0.700 |ddv_scf|^2 =  3.741E-08

      iter #   4 total cpu time :    22.2 secs   av.it.:   8.1
      thresh= 1.934E-05 alpha_mix =  0.700 |ddv_scf|^2 =  6.082E-10

      iter #   5 total cpu time :    22.3 secs   av.it.:   8.5
      thresh= 2.466E-06 alpha_mix =  0.700 |ddv_scf|^2 =  6.392E-12

      iter #   6 total cpu time :    22.5 secs   av.it.:   7.9
      thresh= 2.528E-07 alpha_mix =  0.700 |ddv_scf|^2 =  6.401E-14

     End of self-consistent calculation

     Convergence has been achieved 


     Representation #  3 modes #   3  4

     Self-consistent Calculation

      iter #   1 total cpu time :    22.8 secs   av.it.:   5.0
      thresh= 1.000E-02 alpha_mix =  0.700 |ddv_scf|^2 =  1.010E-06

      iter #   2 total cpu time :    23.2 secs   av.it.:   9.7
      thresh= 1.005E-04 alpha_mix =  0.700 |ddv_scf|^2 =  1.258E-07

      iter #   3 total cpu time :    23.6 secs   av.it.:   9.4
      thresh= 3.547E-05 alpha_mix =  0.700 |ddv_scf|^2 =  6.131E-09

      iter #   4 total cpu time :    23.9 secs   av.it.:   8.8
      thresh= 7.830E-06 alpha_mix =  0.700 |ddv_scf|^2 =  8.906E-12

      iter #   5 total cpu time :    24.3 secs   av.it.:   9.1
      thresh= 2.984E-07 alpha_mix =  0.700 |ddv_scf|^2 =  2.726E-13

     End of self-consistent calculation

     Convergence has been achieved 


     Representation #  4 modes #   5  6

     Self-consistent Calculation

      iter #   1 total cpu time :    24.6 secs   av.it.:   5.0
      thresh= 1.000E-02 alpha_mix =  0.700 |ddv_scf|^2 =  9.278E-07

      iter #   2 total cpu time :    25.0 secs   av.it.:   9.7
      thresh= 9.632E-05 alpha_mix =  0.700 |ddv_scf|^2 =  1.169E-07

      iter #   3 total cpu time :    25.4 secs   av.it.:   9.4
      thresh= 3.419E-05 alpha_mix =  0.700 |ddv_scf|^2 =  6.398E-09

      iter #   4 total cpu time :    25.8 secs   av.it.:   8.9
      thresh= 7.999E-06 alpha_mix =  0.700 |ddv_scf|^2 =  1.380E-11

      iter #   5 total cpu time :    26.1 secs   av.it.:   9.2
      thresh= 3.715E-07 alpha_mix =  0.700 |ddv_scf|^2 =  4.063E-14

     End of self-consistent calculation

     Convergence has been achieved 

     Number of q in the star =    6
     List of q in the star:
          1   0.000000000   0.500000000   0.000000000
          2   0.000000000  -0.500000000   0.000000000
          3   0.500000000   0.000000000   0.000000000
          4   0.000000000   0.000000000   0.500000000
          5   0.000000000   0.000000000  -0.500000000
          6  -0.500000000   0.000000000   0.000000000

     Diagonalizing the dynamical matrix

     q = (    0.000000000   0.500000000   0.000000000 ) 

 **************************************************************************
     freq (    1) =       4.158597 [THz] =     138.715870 [cm-1]
     freq (    2) =       4.158597 [THz] =     138.715870 [cm-1]
     freq (    3) =       7.307062 [THz] =     243.737341 [cm-1]
     freq (    4) =      14.189725 [THz] =     473.318266 [cm-1]
     freq (    5) =      14.189725 [THz] =     473.318266 [cm-1]
     freq (    6) =      14.745269 [THz] =     491.849225 [cm-1]
 **************************************************************************

     Mode symmetry, C_4v (4mm)  point group:

     freq (  1 -  2) =        138.7  [cm-1]   --> E    G_5 D_5       
     freq (  3 -  3) =        243.7  [cm-1]   --> A_1  G_1 D_1       
     freq (  4 -  5) =        473.3  [cm-1]   --> E    G_5 D_5       
     freq (  6 -  6) =        491.8  [cm-1]   --> B_2  G_4 D_2'      

     Calculation of q =    0.7500000  -0.2500000   0.7500000

   Info: using nr1, nr2, nr3 values from input

   Info: using nr1, nr2, nr3 values from input

     Parallelization info
     --------------------
     sticks:   dense  smooth     PW     G-vecs:    dense   smooth      PW
     Min          63      63     30                  682      682     216
     Max          64      64     31                  686      686     218
     Sum         253     253    121                 2733     2733     869



     bravais-lattice index     =            2
     lattice parameter (alat)  =      10.2600  a.u.
     unit-cell volume          =     270.0114 (a.u.)^3
     number of atoms/cell      =            2
     number of atomic types    =            1
     number of electrons       =         8.00
     number of Kohn-Sham states=            4
     kinetic-energy cutoff     =      18.0000  Ry
     charge density cutoff     =      72.0000  Ry
     Exchange-correlation      = SLA  PW   PBE  PBE ( 1  4  3  4 0 0)

     celldm(1)=  10.260000  celldm(2)=   0.000000  celldm(3)=   0.000000
     celldm(4)=   0.000000  celldm(5)=   0.000000  celldm(6)=   0.000000

     crystal axes: (cart. coord. in units of alat)
               a(1) = (  -0.500000   0.000000   0.500000 )  
               a(2) = (   0.000000   0.500000   0.500000 )  
               a(3) = (  -0.500000   0.500000   0.000000 )  

     reciprocal axes: (cart. coord. in units 2 pi/alat)
               b(1) = ( -1.000000 -1.000000  1.000000 )  
               b(2) = (  1.000000  1.000000  1.000000 )  
               b(3) = ( -1.000000  1.000000 -1.000000 )  


     PseudoPot. # 1 for Si read from file:
     /home/max/quantum_espresso/qe-6.1/pseudo/si_pbe_v1.uspp.F.UPF.txt
     MD5 check sum: a056efeee980c13900f22a371efd63c1
     Pseudo is Ultrasoft + core correction, Zval =  4.0
     Generated by new atomic code, or converted to UPF format
     Using radial grid of  899 points,  6 beta functions with: 
                l(1) =   0
                l(2) =   0
                l(3) =   1
                l(4) =   1
                l(5) =   2
                l(6) =   2
     Q(r) pseudized with  8 coefficients,  rinner =    0.900   0.900   0.900
                                                       0.900   0.900

     atomic species   valence    mass     pseudopotential
        Si             4.00    28.08600     Si( 1.00)

     48 Sym. Ops., with inversion, found



   Cartesian axes

     site n.     atom                  positions (alat units)
         1           Si  tau(   1) = (   0.0000000   0.0000000   0.0000000  )
         2           Si  tau(   2) = (   0.2500000   0.2500000   0.2500000  )

     number of k points=   288

     Number of k-points >= 100: set verbosity='high' to print them.

     Dense  grid:     2733 G-vectors     FFT dimensions: (  20,  20,  20)

     Estimated max dynamical RAM per process >       0.32MB

     Estimated total allocated dynamical RAM >       1.30MB

     Check: negative/imaginary core charge=   -0.000005    0.000000

     The potential is recalculated from file :
     ./_ph0/silicon.10.26.save/charge-density.dat

     Starting wfc are    8 atomic wfcs

     Band Structure Calculation
     Davidson diagonalization with overlap

     ethr =  1.25E-10,  avg # of iterations = 11.5

     total cpu time spent up to now is        3.8 secs

     End of band structure calculation

     Number of k-points >= 100: set verbosity='high' to print the bands.

     highest occupied level (ev):     5.9146

     Writing output data file silicon.10.26.save

                                                                                

     bravais-lattice index     =            2
     lattice parameter (alat)  =      10.2600  a.u.
     unit-cell volume          =     270.0114 (a.u.)^3
     number of atoms/cell      =            2
     number of atomic types    =            1
     kinetic-energy cut-off    =      18.0000  Ry
     charge density cut-off    =      72.0000  Ry
     convergence threshold     =      1.0E-12
     beta                      =       0.7000
     number of iterations used =            4
     Exchange-correlation      = SLA  PW   PBE  PBE ( 1  4  3  4 0 0)


     celldm(1)=   10.26000  celldm(2)=    0.00000  celldm(3)=    0.00000
     celldm(4)=    0.00000  celldm(5)=    0.00000  celldm(6)=    0.00000

     crystal axes: (cart. coord. in units of alat)
               a(1) = ( -0.5000  0.0000  0.5000 )  
               a(2) = (  0.0000  0.5000  0.5000 )  
               a(3) = ( -0.5000  0.5000  0.0000 )  

     reciprocal axes: (cart. coord. in units 2 pi/alat)
               b(1) = ( -1.0000 -1.0000  1.0000 )  
               b(2) = (  1.0000  1.0000  1.0000 )  
               b(3) = ( -1.0000  1.0000 -1.0000 )  


     Atoms inside the unit cell: 

     Cartesian axes

     site n.  atom      mass           positions (alat units)
        1     Si  28.0860   tau(    1) = (    0.00000    0.00000    0.00000  )
        2     Si  28.0860   tau(    2) = (    0.25000    0.25000    0.25000  )

     Computing dynamical matrix for 
                    q = (   0.7500000  -0.2500000   0.7500000 )

      2 Sym.Ops. (no q -> -q+G )


     G cutoff =  191.9851  (    683 G-vectors)     FFT grid: ( 20, 20, 20)
     number of k points=   288

     PseudoPot. # 1 for Si read from file:
     /home/max/quantum_espresso/qe-6.1/pseudo/si_pbe_v1.uspp.F.UPF.txt
     MD5 check sum: a056efeee980c13900f22a371efd63c1
     Pseudo is Ultrasoft + core correction, Zval =  4.0
     Generated by new atomic code, or converted to UPF format
     Using radial grid of  899 points,  6 beta functions with: 
                l(1) =   0
                l(2) =   0
                l(3) =   1
                l(4) =   1
                l(5) =   2
                l(6) =   2
     Q(r) pseudized with  8 coefficients,  rinner =    0.900   0.900   0.900
                                                       0.900   0.900

     Mode symmetry, C_s (m)     point group:


     Atomic displacements:
     There are   6 irreducible representations

     Representation     1      1 modes -A'  To be done

     Representation     2      1 modes -A'  To be done

     Representation     3      1 modes -A'  To be done

     Representation     4      1 modes -A'  To be done

     Representation     5      1 modes -A''  To be done

     Representation     6      1 modes -A''  To be done



     Alpha used in Ewald sum =   0.7000
     PHONON       :    27.42s CPU        28.63s WALL



     Representation #  1 mode #   1

     Self-consistent Calculation

      iter #   1 total cpu time :    29.1 secs   av.it.:   5.3
      thresh= 1.000E-02 alpha_mix =  0.700 |ddv_scf|^2 =  6.227E-05

      iter #   2 total cpu time :    29.8 secs   av.it.:   8.9
      thresh= 7.891E-04 alpha_mix =  0.700 |ddv_scf|^2 =  1.612E-04

      iter #   3 total cpu time :    30.4 secs   av.it.:   7.5
      thresh= 1.270E-03 alpha_mix =  0.700 |ddv_scf|^2 =  1.149E-06

      iter #   4 total cpu time :    31.0 secs   av.it.:   8.4
      thresh= 1.072E-04 alpha_mix =  0.700 |ddv_scf|^2 =  5.400E-08

      iter #   5 total cpu time :    31.6 secs   av.it.:   8.3
      thresh= 2.324E-05 alpha_mix =  0.700 |ddv_scf|^2 =  7.129E-09

      iter #   6 total cpu time :    32.2 secs   av.it.:   8.5
      thresh= 8.443E-06 alpha_mix =  0.700 |ddv_scf|^2 =  7.319E-11

      iter #   7 total cpu time :    32.9 secs   av.it.:   8.7
      thresh= 8.555E-07 alpha_mix =  0.700 |ddv_scf|^2 =  2.536E-12

      iter #   8 total cpu time :    33.5 secs   av.it.:   8.6
      thresh= 1.593E-07 alpha_mix =  0.700 |ddv_scf|^2 =  1.766E-13

     End of self-consistent calculation

     Convergence has been achieved 


     Representation #  2 mode #   2

     Self-consistent Calculation

      iter #   1 total cpu time :    34.1 secs   av.it.:   5.4
      thresh= 1.000E-02 alpha_mix =  0.700 |ddv_scf|^2 =  1.114E-04

      iter #   2 total cpu time :    34.7 secs   av.it.:   8.7
      thresh= 1.055E-03 alpha_mix =  0.700 |ddv_scf|^2 =  3.152E-04

      iter #   3 total cpu time :    35.3 secs   av.it.:   7.4
      thresh= 1.775E-03 alpha_mix =  0.700 |ddv_scf|^2 =  7.714E-07

      iter #   4 total cpu time :    35.9 secs   av.it.:   8.6
      thresh= 8.783E-05 alpha_mix =  0.700 |ddv_scf|^2 =  5.369E-08

      iter #   5 total cpu time :    36.5 secs   av.it.:   8.2
      thresh= 2.317E-05 alpha_mix =  0.700 |ddv_scf|^2 =  9.761E-09

      iter #   6 total cpu time :    37.2 secs   av.it.:   8.5
      thresh= 9.880E-06 alpha_mix =  0.700 |ddv_scf|^2 =  7.570E-11

      iter #   7 total cpu time :    37.8 secs   av.it.:   8.7
      thresh= 8.701E-07 alpha_mix =  0.700 |ddv_scf|^2 =  2.295E-12

      iter #   8 total cpu time :    38.5 secs   av.it.:   8.7
      thresh= 1.515E-07 alpha_mix =  0.700 |ddv_scf|^2 =  4.675E-13

     End of self-consistent calculation

     Convergence has been achieved 


     Representation #  3 mode #   3

     Self-consistent Calculation

      iter #   1 total cpu time :    39.0 secs   av.it.:   5.4
      thresh= 1.000E-02 alpha_mix =  0.700 |ddv_scf|^2 =  8.747E-05

      iter #   2 total cpu time :    39.7 secs   av.it.:   8.8
      thresh= 9.352E-04 alpha_mix =  0.700 |ddv_scf|^2 =  2.320E-04

      iter #   3 total cpu time :    40.2 secs   av.it.:   7.4
      thresh= 1.523E-03 alpha_mix =  0.700 |ddv_scf|^2 =  1.324E-06

      iter #   4 total cpu time :    40.8 secs   av.it.:   8.2
      thresh= 1.150E-04 alpha_mix =  0.700 |ddv_scf|^2 =  5.484E-08

      iter #   5 total cpu time :    41.5 secs   av.it.:   8.4
      thresh= 2.342E-05 alpha_mix =  0.700 |ddv_scf|^2 =  9.853E-09

      iter #   6 total cpu time :    42.1 secs   av.it.:   8.4
      thresh= 9.926E-06 alpha_mix =  0.700 |ddv_scf|^2 =  4.520E-11

      iter #   7 total cpu time :    42.8 secs   av.it.:   8.7
      thresh= 6.723E-07 alpha_mix =  0.700 |ddv_scf|^2 =  1.558E-12

      iter #   8 total cpu time :    43.4 secs   av.it.:   8.8
      thresh= 1.248E-07 alpha_mix =  0.700 |ddv_scf|^2 =  2.508E-13

     End of self-consistent calculation

     Convergence has been achieved 


     Representation #  4 mode #   4

     Self-consistent Calculation

      iter #   1 total cpu time :    43.9 secs   av.it.:   5.2
      thresh= 1.000E-02 alpha_mix =  0.700 |ddv_scf|^2 =  3.836E-05

      iter #   2 total cpu time :    44.6 secs   av.it.:   8.9
[...]
        k(   59) = (  -0.8750000   0.1250000  -0.1250000), wk =   0.0625000
        k(   60) = (  -1.3750000  -0.8750000  -0.1250000), wk =   0.0000000
        k(   61) = (  -1.1250000   0.3750000  -0.3750000), wk =   0.0625000
        k(   62) = (  -1.6250000  -0.6250000  -0.3750000), wk =   0.0000000
        k(   63) = (  -0.3750000   0.3750000   1.1250000), wk =   0.0625000
        k(   64) = (  -0.8750000  -0.6250000   1.1250000), wk =   0.0000000

     Dense  grid:     2733 G-vectors     FFT dimensions: (  20,  20,  20)

     Estimated max dynamical RAM per process >       0.32MB

     Estimated total allocated dynamical RAM >       1.30MB

     Check: negative/imaginary core charge=   -0.000005    0.000000

     The potential is recalculated from file :
     ./_ph0/silicon.10.26.save/charge-density.dat

     Starting wfc are    8 atomic wfcs

     Band Structure Calculation
     Davidson diagonalization with overlap

     ethr =  1.25E-10,  avg # of iterations = 11.5

     total cpu time spent up to now is        5.9 secs

     End of band structure calculation

          k =-0.1250 0.1250 0.1250 (   335 PWs)   bands (ev):

    -5.5527   4.6060   5.9146   5.9146

          k =-0.6250-0.8750 0.1250 (   353 PWs)   bands (ev):

    -2.2935  -0.7328   2.1531   3.2491

          k =-0.3750 0.3750-0.1250 (   345 PWs)   bands (ev):

    -4.5081   1.5779   3.8971   5.4277

          k =-0.8750-0.6250-0.1250 (   353 PWs)   bands (ev):

    -2.2935  -0.7328   2.1531   3.2491

          k = 0.3750-0.3750 0.6250 (   350 PWs)   bands (ev):

    -3.3434  -0.5410   3.9266   4.6407

          k =-0.1250-1.3750 0.6250 (   355 PWs)   bands (ev):

    -2.8393  -0.4383   2.2194   4.3169

          k = 0.1250-0.1250 0.3750 (   344 PWs)   bands (ev):

    -5.0161   2.9782   4.8855   4.9622

          k =-0.3750-1.1250 0.3750 (   355 PWs)   bands (ev):

    -2.8393  -0.4383   2.2194   4.3169

          k =-0.1250 0.6250 0.1250 (   342 PWs)   bands (ev):

    -3.9663   1.2591   3.5377   3.9960

          k =-0.6250-0.3750 0.1250 (   348 PWs)   bands (ev):

    -3.5419   0.3613   2.8890   4.2762

          k = 0.6250-0.1250 0.8750 (   353 PWs)   bands (ev):

    -2.2935  -0.7328   2.1531   3.2491

          k = 0.1250-1.1250 0.8750 (   348 PWs)   bands (ev):

    -2.4682  -0.6306   2.7744   3.5214

          k = 0.3750 0.1250 0.6250 (   348 PWs)   bands (ev):

    -3.5419   0.3613   2.8890   4.2762

          k =-0.1250-0.8750 0.6250 (   353 PWs)   bands (ev):

    -2.2935  -0.7328   2.1531   3.2491

          k =-0.1250-0.8750 0.1250 (   348 PWs)   bands (ev):

    -2.4682  -0.6306   2.7744   3.5214

          k =-0.6250-1.8750 0.1250 (   342 PWs)   bands (ev):

    -3.9663   1.2591   3.5377   3.9960

          k =-0.3750 0.3750 0.3750 (   353 PWs)   bands (ev):

    -4.0667   0.2593   5.1151   5.1151

          k =-0.8750-0.6250 0.3750 (   348 PWs)   bands (ev):

    -3.5419   0.3613   2.8890   4.2762

          k = 0.3750-0.3750 1.1250 (   355 PWs)   bands (ev):

    -2.8393  -0.4383   2.2194   4.3169

          k =-0.1250-1.3750 1.1250 (   353 PWs)   bands (ev):

    -2.2935  -0.7328   2.1531   3.2491

          k = 0.1250-0.3750 0.3750 (   345 PWs)   bands (ev):

    -4.5081   1.5779   3.8971   5.4277

          k =-0.3750-1.3750 0.3750 (   350 PWs)   bands (ev):

    -3.3434  -0.5410   3.9266   4.6407

          k = 0.3750-0.3750-0.1250 (   345 PWs)   bands (ev):

    -4.5081   1.5779   3.8971   5.4277

          k =-0.1250-1.3750-0.1250 (   342 PWs)   bands (ev):

    -3.9663   1.2591   3.5377   3.9960

          k =-0.6250 0.3750-0.3750 (   350 PWs)   bands (ev):

    -3.3434  -0.5410   3.9266   4.6407

          k =-1.1250-0.6250-0.3750 (   348 PWs)   bands (ev):

    -3.5419   0.3613   2.8890   4.2762

          k =-0.3750 0.3750 0.6250 (   350 PWs)   bands (ev):

    -3.3434  -0.5410   3.9266   4.6407

          k =-0.8750-0.6250 0.6250 (   345 PWs)   bands (ev):

    -4.5081   1.5779   3.8971   5.4277

          k =-0.3750 0.1250-0.1250 (   344 PWs)   bands (ev):

    -5.0161   2.9782   4.8855   4.9622

          k =-0.8750-0.8750-0.1250 (   348 PWs)   bands (ev):

    -2.4682  -0.6306   2.7744   3.5214

          k =-0.1250 0.1250 0.3750 (   344 PWs)   bands (ev):

    -5.0161   2.9782   4.8855   4.9622

          k =-0.6250-0.8750 0.3750 (   348 PWs)   bands (ev):

    -3.5419   0.3613   2.8890   4.2762

          k = 0.1250 0.6250-0.1250 (   342 PWs)   bands (ev):

    -3.9663   1.2591   3.5377   3.9960

          k =-0.3750-0.3750-0.1250 (   345 PWs)   bands (ev):

    -4.5081   1.5779   3.8971   5.4277

          k = 0.6250 0.1250-0.1250 (   342 PWs)   bands (ev):

    -3.9663   1.2591   3.5377   3.9960

          k = 0.1250-0.8750-0.1250 (   348 PWs)   bands (ev):

    -2.4682  -0.6306   2.7744   3.5214

          k =-0.8750 0.1250-0.6250 (   353 PWs)   bands (ev):

    -2.2935  -0.7328   2.1531   3.2491

          k =-1.3750-0.8750-0.6250 (   345 PWs)   bands (ev):

    -4.5081   1.5779   3.8971   5.4277

          k = 0.8750-0.1250 0.6250 (   353 PWs)   bands (ev):

    -2.2935  -0.7328   2.1531   3.2491

          k = 0.3750-1.1250 0.6250 (   348 PWs)   bands (ev):

    -3.5419   0.3613   2.8890   4.2762

          k =-0.6250 0.1250 0.8750 (   353 PWs)   bands (ev):

    -2.2935  -0.7328   2.1531   3.2491

          k =-1.1250-0.8750 0.8750 (   335 PWs)   bands (ev):

    -5.5527   4.6060   5.9146   5.9146

          k =-0.1250 0.8750 0.6250 (   353 PWs)   bands (ev):

    -2.2935  -0.7328   2.1531   3.2491

          k =-0.6250-0.1250 0.6250 (   355 PWs)   bands (ev):

    -2.8393  -0.4383   2.2194   4.3169

          k = 0.1250 0.8750-0.6250 (   353 PWs)   bands (ev):

    -2.2935  -0.7328   2.1531   3.2491

          k =-0.3750-0.1250-0.6250 (   348 PWs)   bands (ev):

    -3.5419   0.3613   2.8890   4.2762

          k =-0.6250-0.1250-0.3750 (   348 PWs)   bands (ev):

    -3.5419   0.3613   2.8890   4.2762

          k =-1.1250-1.1250-0.3750 (   342 PWs)   bands (ev):

    -3.9663   1.2591   3.5377   3.9960

          k = 0.6250 0.1250 0.3750 (   348 PWs)   bands (ev):

    -3.5419   0.3613   2.8890   4.2762

          k = 0.1250-0.8750 0.3750 (   353 PWs)   bands (ev):

    -2.2935  -0.7328   2.1531   3.2491

          k =-0.3750-0.1250 0.6250 (   348 PWs)   bands (ev):

    -3.5419   0.3613   2.8890   4.2762

          k =-0.8750-1.1250 0.6250 (   344 PWs)   bands (ev):

    -5.0161   2.9782   4.8855   4.9622

          k = 0.1250 0.6250 0.3750 (   348 PWs)   bands (ev):

    -3.5419   0.3613   2.8890   4.2762

          k =-0.3750-0.3750 0.3750 (   353 PWs)   bands (ev):

    -4.0667   0.2593   5.1151   5.1151

          k =-0.1250 0.6250-0.3750 (   348 PWs)   bands (ev):

    -3.5419   0.3613   2.8890   4.2762

          k =-0.6250-0.3750-0.3750 (   350 PWs)   bands (ev):

    -3.3434  -0.5410   3.9266   4.6407

          k = 0.1250-0.8750-0.1250 (   348 PWs)   bands (ev):

    -2.4682  -0.6306   2.7744   3.5214

          k =-0.3750-1.8750-0.1250 (   344 PWs)   bands (ev):

    -5.0161   2.9782   4.8855   4.9622

          k =-0.8750 0.1250-0.1250 (   348 PWs)   bands (ev):

    -2.4682  -0.6306   2.7744   3.5214

          k =-1.3750-0.8750-0.1250 (   353 PWs)   bands (ev):

    -2.2935  -0.7328   2.1531   3.2491

          k =-1.1250 0.3750-0.3750 (   355 PWs)   bands (ev):

    -2.8393  -0.4383   2.2194   4.3169

          k =-1.6250-0.6250-0.3750 (   350 PWs)   bands (ev):

    -3.3434  -0.5410   3.9266   4.6407

          k =-0.3750 0.3750 1.1250 (   355 PWs)   bands (ev):

    -2.8393  -0.4383   2.2194   4.3169

          k =-0.8750-0.6250 1.1250 (   344 PWs)   bands (ev):

    -5.0161   2.9782   4.8855   4.9622

     highest occupied level (ev):     5.9146

     Writing output data file silicon.10.26.save

                                                                                

     bravais-lattice index     =            2
     lattice parameter (alat)  =      10.2600  a.u.
     unit-cell volume          =     270.0114 (a.u.)^3
     number of atoms/cell      =            2
     number of atomic types    =            1
     kinetic-energy cut-off    =      18.0000  Ry
     charge density cut-off    =      72.0000  Ry
     convergence threshold     =      1.0E-12
     beta                      =       0.7000
     number of iterations used =            4
     Exchange-correlation      = SLA  PW   PBE  PBE ( 1  4  3  4 0 0)


     celldm(1)=   10.26000  celldm(2)=    0.00000  celldm(3)=    0.00000
     celldm(4)=    0.00000  celldm(5)=    0.00000  celldm(6)=    0.00000

     crystal axes: (cart. coord. in units of alat)
               a(1) = ( -0.5000  0.0000  0.5000 )  
               a(2) = (  0.0000  0.5000  0.5000 )  
               a(3) = ( -0.5000  0.5000  0.0000 )  

     reciprocal axes: (cart. coord. in units 2 pi/alat)
               b(1) = ( -1.0000 -1.0000  1.0000 )  
               b(2) = (  1.0000  1.0000  1.0000 )  
               b(3) = ( -1.0000  1.0000 -1.0000 )  


     Atoms inside the unit cell: 

     Cartesian axes

     site n.  atom      mass           positions (alat units)
        1     Si  28.0860   tau(    1) = (    0.00000    0.00000    0.00000  )
        2     Si  28.0860   tau(    2) = (    0.25000    0.25000    0.25000  )

     Computing dynamical matrix for 
                    q = (  -0.5000000  -1.0000000   0.0000000 )

      8 Sym.Ops. (no q -> -q+G )


     G cutoff =  191.9851  (    683 G-vectors)     FFT grid: ( 20, 20, 20)
     number of k points=    64

     PseudoPot. # 1 for Si read from file:
     /home/max/quantum_espresso/qe-6.1/pseudo/si_pbe_v1.uspp.F.UPF.txt
     MD5 check sum: a056efeee980c13900f22a371efd63c1
     Pseudo is Ultrasoft + core correction, Zval =  4.0
     Generated by new atomic code, or converted to UPF format
     Using radial grid of  899 points,  6 beta functions with: 
                l(1) =   0
                l(2) =   0
                l(3) =   1
                l(4) =   1
                l(5) =   2
                l(6) =   2
     Q(r) pseudized with  8 coefficients,  rinner =    0.900   0.900   0.900
                                                       0.900   0.900


     Atomic displacements:
     There are   3 irreducible representations

     Representation     1      2 modes -  To be done

     Representation     2      2 modes -  To be done

     Representation     3      2 modes -  To be done



     Alpha used in Ewald sum =   0.7000
     PHONON       :  1m 8.65s CPU     1m11.75s WALL



     Representation #  1 modes #   1  2

     Self-consistent Calculation

      iter #   1 total cpu time :    72.0 secs   av.it.:   5.3
      thresh= 1.000E-02 alpha_mix =  0.700 |ddv_scf|^2 =  6.489E-06

      iter #   2 total cpu time :    72.3 secs   av.it.:   9.8
      thresh= 2.547E-04 alpha_mix =  0.700 |ddv_scf|^2 =  3.535E-06

      iter #   3 total cpu time :    72.6 secs   av.it.:   9.2
      thresh= 1.880E-04 alpha_mix =  0.700 |ddv_scf|^2 =  8.330E-09

      iter #   4 total cpu time :    72.9 secs   av.it.:   9.1
      thresh= 9.127E-06 alpha_mix =  0.700 |ddv_scf|^2 =  1.969E-11

      iter #   5 total cpu time :    73.3 secs   av.it.:   9.1
      thresh= 4.437E-07 alpha_mix =  0.700 |ddv_scf|^2 =  5.479E-13

     End of self-consistent calculation

     Convergence has been achieved 


     Representation #  2 modes #   3  4

     Self-consistent Calculation

      iter #   1 total cpu time :    73.5 secs   av.it.:   5.3
      thresh= 1.000E-02 alpha_mix =  0.700 |ddv_scf|^2 =  9.950E-06

      iter #   2 total cpu time :    73.8 secs   av.it.:   9.9
      thresh= 3.154E-04 alpha_mix =  0.700 |ddv_scf|^2 =  1.297E-05

      iter #   3 total cpu time :    74.1 secs   av.it.:   9.1
      thresh= 3.601E-04 alpha_mix =  0.700 |ddv_scf|^2 =  9.713E-09

      iter #   4 total cpu time :    74.4 secs   av.it.:   8.9
      thresh= 9.856E-06 alpha_mix =  0.700 |ddv_scf|^2 =  6.968E-11

      iter #   5 total cpu time :    74.8 secs   av.it.:   9.4
      thresh= 8.347E-07 alpha_mix =  0.700 |ddv_scf|^2 =  1.593E-12

      iter #   6 total cpu time :    75.1 secs   av.it.:   9.1
      thresh= 1.262E-07 alpha_mix =  0.700 |ddv_scf|^2 =  1.369E-14

     End of self-consistent calculation

     Convergence has been achieved 


     Representation #  3 modes #   5  6

     Self-consistent Calculation

      iter #   1 total cpu time :    75.3 secs   av.it.:   5.1
      thresh= 1.000E-02 alpha_mix =  0.700 |ddv_scf|^2 =  2.706E-06

      iter #   2 total cpu time :    75.6 secs   av.it.:   9.7
      thresh= 1.645E-04 alpha_mix =  0.700 |ddv_scf|^2 =  1.488E-06

      iter #   3 total cpu time :    76.0 secs   av.it.:   9.1
      thresh= 1.220E-04 alpha_mix =  0.700 |ddv_scf|^2 =  8.039E-09

      iter #   4 total cpu time :    76.3 secs   av.it.:   8.8
      thresh= 8.966E-06 alpha_mix =  0.700 |ddv_scf|^2 =  4.303E-11

      iter #   5 total cpu time :    76.6 secs   av.it.:   9.1
      thresh= 6.560E-07 alpha_mix =  0.700 |ddv_scf|^2 =  6.964E-13

     End of self-consistent calculation

     Convergence has been achieved 

     Number of q in the star =    6
     List of q in the star:
          1  -0.500000000  -1.000000000   0.000000000
          2   0.000000000   1.000000000   0.500000000
          3   0.000000000  -1.000000000  -0.500000000
          4   0.500000000   1.000000000   0.000000000
          5  -1.000000000  -0.500000000   0.000000000
          6   0.000000000  -0.500000000  -1.000000000

     Diagonalizing the dynamical matrix

     q = (   -0.500000000  -1.000000000   0.000000000 ) 

 **************************************************************************
     freq (    1) =       7.026910 [THz] =     234.392485 [cm-1]
     freq (    2) =       7.026910 [THz] =     234.392485 [cm-1]
     freq (    3) =      11.049282 [THz] =     368.564368 [cm-1]
     freq (    4) =      11.049282 [THz] =     368.564368 [cm-1]
     freq (    5) =      14.208084 [THz] =     473.930653 [cm-1]
     freq (    6) =      14.208084 [THz] =     473.930653 [cm-1]
 **************************************************************************

     init_run     :      0.52s CPU      0.53s WALL (       7 calls)
     electrons    :      4.36s CPU      4.60s WALL (       7 calls)

     Called by init_run:
     wfcinit      :      0.00s CPU      0.00s WALL (       7 calls)
     potinit      :      0.02s CPU      0.02s WALL (       7 calls)

     Called by electrons:
     c_bands      :      4.36s CPU      4.58s WALL (       7 calls)
     v_of_rho     :      0.01s CPU      0.01s WALL (       8 calls)
     newd         :      0.02s CPU      0.03s WALL (       8 calls)

     Called by c_bands:
     init_us_2    :      0.64s CPU      0.67s WALL (   17588 calls)
     cegterg      :      3.68s CPU      3.86s WALL (     796 calls)

     Called by sum_band:

     Called by *egterg:
     h_psi        :     40.76s CPU     42.66s WALL (  151981 calls)
     s_psi        :      5.61s CPU      5.88s WALL (  308760 calls)
     g_psi        :      0.03s CPU      0.03s WALL (    9190 calls)
     cdiaghg      :      0.43s CPU      0.45s WALL (    9986 calls)

     Called by h_psi:
     h_psi:pot    :     40.58s CPU     42.47s WALL (  151981 calls)
     h_psi:calbec :      3.94s CPU      4.12s WALL (  151981 calls)
     vloc_psi     :     33.63s CPU     35.20s WALL (  151981 calls)
     add_vuspsi   :      2.80s CPU      2.94s WALL (  151981 calls)

     General routines
     calbec       :      8.70s CPU      9.10s WALL (  345132 calls)
     fft          :      0.27s CPU      0.28s WALL (    5239 calls)
     ffts         :      0.12s CPU      0.13s WALL (    2748 calls)
     fftw         :     38.85s CPU     40.65s WALL ( 1376508 calls)
     davcio       :      0.29s CPU      0.31s WALL (   79045 calls)

     Parallel routines
     fft_scatter  :      7.10s CPU      7.46s WALL ( 1384495 calls)

     PHONON       :  1m13.32s CPU     1m16.58s WALL

     INITIALIZATION: 
     phq_setup    :      0.05s CPU      0.05s WALL (       8 calls)
     phq_init     :      1.89s CPU      1.91s WALL (       8 calls)

     phq_init     :      1.89s CPU      1.91s WALL (       8 calls)
     set_drhoc    :      0.28s CPU      0.28s WALL (      24 calls)
     init_vloc    :      0.01s CPU      0.01s WALL (       8 calls)
     init_us_1    :      0.48s CPU      0.48s WALL (       8 calls)
     newd         :      0.02s CPU      0.03s WALL (       8 calls)
     dvanqq       :      0.22s CPU      0.22s WALL (       8 calls)
     drho         :      0.97s CPU      0.99s WALL (       8 calls)

     DYNAMICAL MATRIX:
     dynmat0      :      0.47s CPU      0.48s WALL (       8 calls)
     phqscf       :     64.09s CPU     67.00s WALL (       8 calls)
     dynmatrix    :      0.01s CPU      0.02s WALL (       8 calls)

     phqscf       :     64.09s CPU     67.00s WALL (       8 calls)
     solve_linter :     63.41s CPU     66.29s WALL (      32 calls)
     drhodv       :      0.47s CPU      0.49s WALL (      32 calls)

     dynmat0      :      0.47s CPU      0.48s WALL (       8 calls)
     dynmat_us    :      0.26s CPU      0.26s WALL (       8 calls)
     d2ionq       :      0.01s CPU      0.01s WALL (       8 calls)
     dynmatcc     :      0.20s CPU      0.20s WALL (       8 calls)

     dynmat_us    :      0.26s CPU      0.26s WALL (       8 calls)
     addusdynmat  :      0.00s CPU      0.00s WALL (       8 calls)

     phqscf       :     64.09s CPU     67.00s WALL (       8 calls)
     solve_linter :     63.41s CPU     66.29s WALL (      32 calls)

     solve_linter :     63.41s CPU     66.29s WALL (      32 calls)
     dvqpsi_us    :      1.56s CPU      1.64s WALL (    2508 calls)
     ortho        :      0.90s CPU      0.94s WALL (   15550 calls)
     cgsolve      :     49.62s CPU     51.91s WALL (   15550 calls)
     incdrhoscf   :      4.36s CPU      4.57s WALL (   15550 calls)
     addusddens   :      1.05s CPU      1.07s WALL (     228 calls)
     vpsifft      :      3.20s CPU      3.34s WALL (   12922 calls)
     dv_of_drho   :      0.20s CPU      0.20s WALL (     295 calls)
     mix_pot      :      0.05s CPU      0.06s WALL (     201 calls)
     psymdvscf    :      0.80s CPU      0.80s WALL (     196 calls)
     newdq        :      1.13s CPU      1.17s WALL (     201 calls)
     adddvscf     :      0.45s CPU      0.47s WALL (   13042 calls)
     drhodvus     :      0.00s CPU      0.00s WALL (      32 calls)

     dvqpsi_us    :      1.56s CPU      1.64s WALL (    2508 calls)
     dvqpsi_us_on :      0.80s CPU      0.84s WALL (    2508 calls)

     cgsolve      :     49.62s CPU     51.91s WALL (   15550 calls)
     ch_psi       :     48.19s CPU     50.42s WALL (  141199 calls)

     ch_psi       :     48.19s CPU     50.42s WALL (  141199 calls)
     h_psi        :     40.76s CPU     42.66s WALL (  151981 calls)
     last         :      7.53s CPU      7.88s WALL (  141199 calls)

     h_psi        :     40.76s CPU     42.66s WALL (  151981 calls)
     add_vuspsi   :      2.80s CPU      2.94s WALL (  151981 calls)

     incdrhoscf   :      4.36s CPU      4.57s WALL (   15550 calls)
     addusdbec    :      0.58s CPU      0.60s WALL (   17998 calls)

     drhodvus     :      0.00s CPU      0.00s WALL (      32 calls)

      General routines
     calbec       :      8.70s CPU      9.10s WALL (  345132 calls)
     fft          :      0.27s CPU      0.28s WALL (    5239 calls)
     ffts         :      0.12s CPU      0.13s WALL (    2748 calls)
     fftw         :     38.85s CPU     40.65s WALL ( 1376508 calls)
     davcio       :      0.29s CPU      0.31s WALL (   79045 calls)
     write_rec    :      0.21s CPU      0.22s WALL (     233 calls)


     PHONON       :  1m13.32s CPU     1m16.58s WALL


   This run was terminated on:   1:14: 2   9Nov2017            

=------------------------------------------------------------------------------=
   JOB DONE.
=------------------------------------------------------------------------------=
