
     Program PWSCF v.6.1 (svn rev. 13369) starts on 10Nov2017 at 13:47:51 

     This program is part of the open-source Quantum ESPRESSO suite
     for quantum simulation of materials; please cite
         "P. Giannozzi et al., J. Phys.:Condens. Matter 21 395502 (2009);
          URL http://www.quantum-espresso.org", 
     in publications or presentations arising from this work. More details at
     http://www.quantum-espresso.org/quote

     Parallel version (MPI), running on     4 processors
     R & G space division:  proc/nbgrp/npool/nimage =       4
     Waiting for input...
     Reading input from standard input
     Message from routine read_cards :
     DEPRECATED: no units specified in ATOMIC_POSITIONS card
     Message from routine read_cards :
     ATOMIC_POSITIONS: units set to alat

     Current dimensions of program PWSCF are:
     Max number of different atomic species (ntypx) = 10
     Max number of k-points (npk) =  40000
     Max angular momentum in pseudopotentials (lmaxx) =  3

     Subspace diagonalization in iterative solution of the eigenvalue problem:
     a serial algorithm will be used


     Parallelization info
     --------------------
     sticks:   dense  smooth     PW     G-vecs:    dense   smooth      PW
     Min         370     186     55                 9325     3330     556
     Max         371     187     56                 9328     3333     558
     Sum        1483     745    223                37309    13323    2229



     bravais-lattice index     =            2
     lattice parameter (alat)  =      10.3330  a.u.
     unit-cell volume          =     275.8159 (a.u.)^3
     number of atoms/cell      =            2
     number of atomic types    =            1
     number of electrons       =         8.00
     number of Kohn-Sham states=            4
     kinetic-energy cutoff     =      50.0000  Ry
     charge density cutoff     =     400.0000  Ry
     convergence threshold     =      1.0E-08
     mixing beta               =       0.7000
     number of iterations used =            8  plain     mixing
     Exchange-correlation      = SLA  PW   PBE  PBE ( 1  4  3  4 0 0)

     celldm(1)=  10.333000  celldm(2)=   0.000000  celldm(3)=   0.000000
     celldm(4)=   0.000000  celldm(5)=   0.000000  celldm(6)=   0.000000

     crystal axes: (cart. coord. in units of alat)
               a(1) = (  -0.500000   0.000000   0.500000 )  
               a(2) = (   0.000000   0.500000   0.500000 )  
               a(3) = (  -0.500000   0.500000   0.000000 )  

     reciprocal axes: (cart. coord. in units 2 pi/alat)
               b(1) = ( -1.000000 -1.000000  1.000000 )  
               b(2) = (  1.000000  1.000000  1.000000 )  
               b(3) = ( -1.000000  1.000000 -1.000000 )  


     PseudoPot. # 1 for Si read from file:
     /home/s1333534/quantum_espresso/qe-6.1/pseudo/si_pbe_v1.uspp.F.UPF.txt
     MD5 check sum: a056efeee980c13900f22a371efd63c1
     Pseudo is Ultrasoft + core correction, Zval =  4.0
     Generated by new atomic code, or converted to UPF format
     Using radial grid of  899 points,  6 beta functions with: 
                l(1) =   0
                l(2) =   0
                l(3) =   1
                l(4) =   1
                l(5) =   2
                l(6) =   2
     Q(r) pseudized with  8 coefficients,  rinner =    0.900   0.900   0.900
                                                       0.900   0.900

     atomic species   valence    mass     pseudopotential
        Si             4.00    28.08600     Si( 1.00)

     48 Sym. Ops., with inversion, found (24 have fractional translation)



   Cartesian axes

     site n.     atom                  positions (alat units)
         1           Si  tau(   1) = (   0.0000000   0.0000000   0.0000000  )
         2           Si  tau(   2) = (   0.2500000   0.2500000   0.2500000  )

     number of k points=    10
                       cart. coord. in units 2pi/alat
        k(    1) = (  -0.1250000   0.1250000   0.1250000), wk =   0.0625000
        k(    2) = (  -0.3750000   0.3750000  -0.1250000), wk =   0.1875000
        k(    3) = (   0.3750000  -0.3750000   0.6250000), wk =   0.1875000
        k(    4) = (   0.1250000  -0.1250000   0.3750000), wk =   0.1875000
        k(    5) = (  -0.1250000   0.6250000   0.1250000), wk =   0.1875000
        k(    6) = (   0.6250000  -0.1250000   0.8750000), wk =   0.3750000
        k(    7) = (   0.3750000   0.1250000   0.6250000), wk =   0.3750000
        k(    8) = (  -0.1250000  -0.8750000   0.1250000), wk =   0.1875000
        k(    9) = (  -0.3750000   0.3750000   0.3750000), wk =   0.0625000
        k(   10) = (   0.3750000  -0.3750000   1.1250000), wk =   0.1875000

     Dense  grid:    37309 G-vectors     FFT dimensions: (  48,  48,  48)

     Smooth grid:    13323 G-vectors     FFT dimensions: (  36,  36,  36)

     Estimated max dynamical RAM per process >       6.30MB

     Estimated total allocated dynamical RAM >      25.21MB

     Initial potential from superposition of free atoms

     starting charge    7.99866, renormalised to    8.00000
     Starting wfc are    8 randomized atomic wfcs

     total cpu time spent up to now is        0.4 secs

     per-process dynamical memory:    12.2 Mb

     Self-consistent Calculation

     iteration #  1     ecut=    50.00 Ry     beta=0.70
     Davidson diagonalization with overlap
     ethr =  1.00E-02,  avg # of iterations =  2.0

     Threshold (ethr) on eigenvalues was too large:
     Diagonalizing with lowered threshold

     Davidson diagonalization with overlap
     ethr =  6.81E-04,  avg # of iterations =  1.0

     total cpu time spent up to now is        0.7 secs

     total energy              =     -19.19119027 Ry
     Harris-Foulkes estimate   =     -19.20364757 Ry
     estimated scf accuracy    <       0.05368191 Ry

     iteration #  2     ecut=    50.00 Ry     beta=0.70
     Davidson diagonalization with overlap
     ethr =  6.71E-04,  avg # of iterations =  1.0

     total cpu time spent up to now is        0.9 secs

     total energy              =     -19.19291749 Ry
     Harris-Foulkes estimate   =     -19.19309208 Ry
     estimated scf accuracy    <       0.00246836 Ry

     iteration #  3     ecut=    50.00 Ry     beta=0.70
     Davidson diagonalization with overlap
     ethr =  3.09E-05,  avg # of iterations =  2.1

     total cpu time spent up to now is        1.0 secs

     total energy              =     -19.19323676 Ry
     Harris-Foulkes estimate   =     -19.19324869 Ry
     estimated scf accuracy    <       0.00004148 Ry

     iteration #  4     ecut=    50.00 Ry     beta=0.70
     Davidson diagonalization with overlap
     ethr =  5.18E-07,  avg # of iterations =  3.6

     total cpu time spent up to now is        1.2 secs

     total energy              =     -19.19327830 Ry
     Harris-Foulkes estimate   =     -19.19327903 Ry
     estimated scf accuracy    <       0.00000275 Ry

     iteration #  5     ecut=    50.00 Ry     beta=0.70
     Davidson diagonalization with overlap
     ethr =  3.44E-08,  avg # of iterations =  2.1

     total cpu time spent up to now is        1.4 secs

     End of self-consistent calculation

          k =-0.1250 0.1250 0.1250 (  1654 PWs)   bands (ev):

    -5.6376   4.3883   5.6976   5.6976

          k =-0.3750 0.3750-0.1250 (  1642 PWs)   bands (ev):

    -4.6113   1.3964   3.7123   5.2176

          k = 0.3750-0.3750 0.6250 (  1650 PWs)   bands (ev):

    -3.4723  -0.6808   3.7330   4.4465

          k = 0.1250-0.1250 0.3750 (  1647 PWs)   bands (ev):

    -5.1099   2.7725   4.6901   4.7540

          k =-0.1250 0.6250 0.1250 (  1654 PWs)   bands (ev):

    -4.0790   1.0623   3.3639   3.8165

          k = 0.6250-0.1250 0.8750 (  1651 PWs)   bands (ev):

    -2.4400  -0.8989   2.0102   3.0864

          k = 0.3750 0.1250 0.6250 (  1636 PWs)   bands (ev):

    -3.6636   0.1895   2.7223   4.0910

          k =-0.1250-0.8750 0.1250 (  1648 PWs)   bands (ev):

    -2.6076  -0.8016   2.6199   3.3498

          k =-0.3750 0.3750 0.3750 (  1640 PWs)   bands (ev):

    -4.1786   0.1068   4.9108   4.9108

          k = 0.3750-0.3750 1.1250 (  1646 PWs)   bands (ev):

    -2.9768  -0.5963   2.0684   4.1297

     highest occupied level (ev):     5.6976

!    total energy              =     -19.19327866 Ry
     Harris-Foulkes estimate   =     -19.19327865 Ry
     estimated scf accuracy    <          8.8E-09 Ry

     The total energy is the sum of the following terms:

     one-electron contribution =       4.95146182 Ry
     hartree contribution      =       1.13438196 Ry
     xc contribution           =      -8.59688713 Ry
     ewald contribution        =     -16.68223531 Ry

     convergence has been achieved in   5 iterations


     Computing stress (Cartesian axis) and pressure

          total   stress  (Ry/bohr**3)                   (kbar)     P=   -0.26
  -0.00000179  -0.00000000   0.00000000         -0.26     -0.00      0.00
  -0.00000000  -0.00000179   0.00000000         -0.00     -0.26      0.00
   0.00000000   0.00000000  -0.00000179          0.00      0.00     -0.26


     Writing output data file silicon.50.save

     init_run     :      0.32s CPU      0.34s WALL (       1 calls)
     electrons    :      0.99s CPU      1.03s WALL (       1 calls)
     stress       :      0.35s CPU      0.35s WALL (       1 calls)

     Called by init_run:
     wfcinit      :      0.03s CPU      0.04s WALL (       1 calls)
     potinit      :      0.03s CPU      0.03s WALL (       1 calls)

     Called by electrons:
     c_bands      :      0.31s CPU      0.31s WALL (       6 calls)
     sum_band     :      0.39s CPU      0.40s WALL (       6 calls)
     v_of_rho     :      0.12s CPU      0.12s WALL (       6 calls)
     newd         :      0.20s CPU      0.21s WALL (       6 calls)
     mix_rho      :      0.01s CPU      0.01s WALL (       6 calls)

     Called by c_bands:
     init_us_2    :      0.03s CPU      0.03s WALL (     140 calls)
     cegterg      :      0.26s CPU      0.26s WALL (      60 calls)

     Called by sum_band:
     sum_band:bec :      0.00s CPU      0.00s WALL (      60 calls)
     addusdens    :      0.29s CPU      0.30s WALL (       6 calls)

     Called by *egterg:
     h_psi        :      0.25s CPU      0.26s WALL (     188 calls)
     s_psi        :      0.01s CPU      0.01s WALL (     188 calls)
     g_psi        :      0.00s CPU      0.00s WALL (     118 calls)
     cdiaghg      :      0.01s CPU      0.01s WALL (     168 calls)

     Called by h_psi:
     h_psi:pot    :      0.25s CPU      0.26s WALL (     188 calls)
     h_psi:calbec :      0.01s CPU      0.01s WALL (     188 calls)
     vloc_psi     :      0.23s CPU      0.23s WALL (     188 calls)
     add_vuspsi   :      0.01s CPU      0.01s WALL (     188 calls)

     General routines
     calbec       :      0.02s CPU      0.02s WALL (     258 calls)
     fft          :      0.06s CPU      0.06s WALL (     110 calls)
     ffts         :      0.00s CPU      0.00s WALL (      12 calls)
     fftw         :      0.23s CPU      0.24s WALL (    1656 calls)
     interpolate  :      0.01s CPU      0.01s WALL (      12 calls)
     davcio       :      0.00s CPU      0.00s WALL (      10 calls)

     Parallel routines
     fft_scatter  :      0.06s CPU      0.06s WALL (    1778 calls)

     PWSCF        :     1.75s CPU         2.01s WALL


   This run was terminated on:  13:47:53  10Nov2017            

=------------------------------------------------------------------------------=
   JOB DONE.
=------------------------------------------------------------------------------=
