
     Program PWSCF v.6.1 (svn rev. 13369) starts on 10Nov2017 at 10:14:58 

     This program is part of the open-source Quantum ESPRESSO suite
     for quantum simulation of materials; please cite
         "P. Giannozzi et al., J. Phys.:Condens. Matter 21 395502 (2009);
          URL http://www.quantum-espresso.org", 
     in publications or presentations arising from this work. More details at
     http://www.quantum-espresso.org/quote

     Parallel version (MPI), running on     4 processors
     R & G space division:  proc/nbgrp/npool/nimage =       4
     Waiting for input...
     Reading input from standard input
     Message from routine read_cards :
     DEPRECATED: no units specified in ATOMIC_POSITIONS card
     Message from routine read_cards :
     ATOMIC_POSITIONS: units set to alat

     Current dimensions of program PWSCF are:
     Max number of different atomic species (ntypx) = 10
     Max number of k-points (npk) =  40000
     Max angular momentum in pseudopotentials (lmaxx) =  3

     Subspace diagonalization in iterative solution of the eigenvalue problem:
     a serial algorithm will be used


     Parallelization info
     --------------------
     sticks:   dense  smooth     PW     G-vecs:    dense   smooth      PW
     Min         222     109     37                 4393     1557     309
     Max         223     110     38                 4394     1558     312
     Sum         889     439    151                17573     6231    1243



     bravais-lattice index     =            2
     lattice parameter (alat)  =      10.3900  a.u.
     unit-cell volume          =     280.4056 (a.u.)^3
     number of atoms/cell      =            2
     number of atomic types    =            1
     number of electrons       =         8.00
     number of Kohn-Sham states=            4
     kinetic-energy cutoff     =      30.0000  Ry
     charge density cutoff     =     240.0000  Ry
     convergence threshold     =      1.0E-08
     mixing beta               =       0.7000
     number of iterations used =            8  plain     mixing
     Exchange-correlation      = SLA  PW   PBE  PBE ( 1  4  3  4 0 0)

     celldm(1)=  10.390000  celldm(2)=   0.000000  celldm(3)=   0.000000
     celldm(4)=   0.000000  celldm(5)=   0.000000  celldm(6)=   0.000000

     crystal axes: (cart. coord. in units of alat)
               a(1) = (  -0.500000   0.000000   0.500000 )  
               a(2) = (   0.000000   0.500000   0.500000 )  
               a(3) = (  -0.500000   0.500000   0.000000 )  

     reciprocal axes: (cart. coord. in units 2 pi/alat)
               b(1) = ( -1.000000 -1.000000  1.000000 )  
               b(2) = (  1.000000  1.000000  1.000000 )  
               b(3) = ( -1.000000  1.000000 -1.000000 )  


     PseudoPot. # 1 for Si read from file:
     /home/max/quantum_espresso/qe-6.1/pseudo/si_pbe_v1.uspp.F.UPF.txt
     MD5 check sum: a056efeee980c13900f22a371efd63c1
     Pseudo is Ultrasoft + core correction, Zval =  4.0
     Generated by new atomic code, or converted to UPF format
     Using radial grid of  899 points,  6 beta functions with: 
                l(1) =   0
                l(2) =   0
                l(3) =   1
                l(4) =   1
                l(5) =   2
                l(6) =   2
     Q(r) pseudized with  8 coefficients,  rinner =    0.900   0.900   0.900
                                                       0.900   0.900

     atomic species   valence    mass     pseudopotential
        Si             4.00    28.08600     Si( 1.00)

     48 Sym. Ops., with inversion, found (24 have fractional translation)



   Cartesian axes

     site n.     atom                  positions (alat units)
         1           Si  tau(   1) = (   0.0000000   0.0000000   0.0000000  )
         2           Si  tau(   2) = (   0.2500000   0.2500000   0.2500000  )

     number of k points=    28
                       cart. coord. in units 2pi/alat
        k(    1) = (  -0.0833333   0.0833333   0.0833333), wk =   0.0185185
        k(    2) = (  -0.2500000   0.2500000  -0.0833333), wk =   0.0555556
        k(    3) = (  -0.4166667   0.4166667  -0.2500000), wk =   0.0555556
        k(    4) = (   0.4166667  -0.4166667   0.5833333), wk =   0.0555556
        k(    5) = (   0.2500000  -0.2500000   0.4166667), wk =   0.0555556
        k(    6) = (   0.0833333  -0.0833333   0.2500000), wk =   0.0555556
        k(    7) = (  -0.0833333   0.4166667   0.0833333), wk =   0.0555556
        k(    8) = (  -0.2500000   0.5833333  -0.0833333), wk =   0.1111111
        k(    9) = (   0.5833333  -0.2500000   0.7500000), wk =   0.1111111
        k(   10) = (   0.4166667  -0.0833333   0.5833333), wk =   0.1111111
        k(   11) = (   0.2500000   0.0833333   0.4166667), wk =   0.1111111
        k(   12) = (  -0.0833333   0.7500000   0.0833333), wk =   0.0555556
        k(   13) = (   0.7500000  -0.0833333   0.9166667), wk =   0.1111111
        k(   14) = (   0.5833333   0.0833333   0.7500000), wk =   0.1111111
        k(   15) = (   0.4166667   0.2500000   0.5833333), wk =   0.1111111
        k(   16) = (  -0.0833333  -0.9166667   0.0833333), wk =   0.0555556
        k(   17) = (  -0.2500000  -0.7500000  -0.0833333), wk =   0.1111111
        k(   18) = (  -0.0833333  -0.5833333   0.0833333), wk =   0.0555556
        k(   19) = (  -0.2500000   0.2500000   0.2500000), wk =   0.0185185
        k(   20) = (  -0.4166667   0.4166667   0.0833333), wk =   0.0555556
        k(   21) = (   0.4166667  -0.4166667   0.9166667), wk =   0.0555556
        k(   22) = (   0.2500000  -0.2500000   0.7500000), wk =   0.0555556
        k(   23) = (  -0.2500000   0.5833333   0.2500000), wk =   0.0555556
        k(   24) = (   0.5833333  -0.2500000   1.0833333), wk =   0.1111111
        k(   25) = (   0.4166667  -0.0833333   0.9166667), wk =   0.1111111
        k(   26) = (  -0.2500000  -1.0833333   0.2500000), wk =   0.0555556
        k(   27) = (  -0.4166667   0.4166667   0.4166667), wk =   0.0185185
        k(   28) = (   0.4166667  -0.4166667   1.2500000), wk =   0.0555556

     Dense  grid:    17573 G-vectors     FFT dimensions: (  40,  40,  40)

     Smooth grid:     6231 G-vectors     FFT dimensions: (  25,  25,  25)

     Estimated max dynamical RAM per process >       3.39MB

     Estimated total allocated dynamical RAM >      13.57MB

     Initial potential from superposition of free atoms

     starting charge    7.99866, renormalised to    8.00000
     Starting wfc are    8 randomized atomic wfcs

     total cpu time spent up to now is        0.5 secs

     per-process dynamical memory:     9.9 Mb

     Self-consistent Calculation

     iteration #  1     ecut=    30.00 Ry     beta=0.70
     Davidson diagonalization with overlap
     ethr =  1.00E-02,  avg # of iterations =  2.0

     Threshold (ethr) on eigenvalues was too large:
     Diagonalizing with lowered threshold

     Davidson diagonalization with overlap
     ethr =  6.58E-04,  avg # of iterations =  1.0

     total cpu time spent up to now is        1.3 secs

     total energy              =     -19.19116221 Ry
     Harris-Foulkes estimate   =     -19.20295179 Ry
     estimated scf accuracy    <       0.05224973 Ry

     iteration #  2     ecut=    30.00 Ry     beta=0.70
     Davidson diagonalization with overlap
     ethr =  6.53E-04,  avg # of iterations =  1.0

     total cpu time spent up to now is        1.6 secs

     total energy              =     -19.19279707 Ry
     Harris-Foulkes estimate   =     -19.19296668 Ry
     estimated scf accuracy    <       0.00244659 Ry

     iteration #  3     ecut=    30.00 Ry     beta=0.70
     Davidson diagonalization with overlap
     ethr =  3.06E-05,  avg # of iterations =  2.1

     total cpu time spent up to now is        2.0 secs

     total energy              =     -19.19310527 Ry
     Harris-Foulkes estimate   =     -19.19311730 Ry
     estimated scf accuracy    <       0.00004021 Ry

     iteration #  4     ecut=    30.00 Ry     beta=0.70
     Davidson diagonalization with overlap
     ethr =  5.03E-07,  avg # of iterations =  3.4

     total cpu time spent up to now is        2.4 secs

     total energy              =     -19.19314454 Ry
     Harris-Foulkes estimate   =     -19.19314524 Ry
     estimated scf accuracy    <       0.00000263 Ry

     iteration #  5     ecut=    30.00 Ry     beta=0.70
     Davidson diagonalization with overlap
     ethr =  3.28E-08,  avg # of iterations =  2.0

     total cpu time spent up to now is        2.6 secs

     End of self-consistent calculation

          k =-0.0833 0.0833 0.0833 (   779 PWs)   bands (ev):

    -5.8074   4.9525   5.6742   5.6742

          k =-0.2500 0.2500-0.0833 (   788 PWs)   bands (ev):

    -5.3446   2.8996   4.4764   5.4656

          k =-0.4167 0.4167-0.2500 (   779 PWs)   bands (ev):

    -4.2878   0.2130   4.0146   4.8460

          k = 0.4167-0.4167 0.5833 (   783 PWs)   bands (ev):

    -3.6195  -0.8902   4.0734   4.4780

          k = 0.2500-0.2500 0.4167 (   780 PWs)   bands (ev):

    -4.6853   1.0349   4.5406   4.5587

          k = 0.0833-0.0833 0.2500 (   785 PWs)   bands (ev):

    -5.5736   3.8881   5.0509   5.2197

          k =-0.0833 0.4167 0.0833 (   787 PWs)   bands (ev):

    -5.1102   2.6921   4.3191   4.3426

          k =-0.2500 0.5833-0.0833 (   779 PWs)   bands (ev):

    -4.2276   0.8931   3.0466   3.9647

          k = 0.5833-0.2500 0.7500 (   779 PWs)   bands (ev):

    -3.1548  -0.7912   2.4526   3.7474

          k = 0.4167-0.0833 0.5833 (   779 PWs)   bands (ev):

    -3.8473   0.2247   2.4237   4.2153

          k = 0.2500 0.0833 0.4167 (   781 PWs)   bands (ev):

    -4.8919   1.8879   3.7217   4.8574

          k =-0.0833 0.7500 0.0833 (   777 PWs)   bands (ev):

    -3.5358   0.0696   3.0167   3.3413

          k = 0.7500-0.0833 0.9167 (   772 PWs)   bands (ev):

    -2.3791  -1.2357   2.2089   2.9526

          k = 0.5833 0.0833 0.7500 (   774 PWs)   bands (ev):

    -2.7466  -0.8947   1.7384   3.4802

          k = 0.4167 0.2500 0.5833 (   779 PWs)   bands (ev):

    -3.7425  -0.4160   3.3196   4.3083

          k =-0.0833-0.9167 0.0833 (   772 PWs)   bands (ev):

    -2.4643  -1.2418   2.7557   3.1315

          k =-0.2500-0.7500-0.0833 (   775 PWs)   bands (ev):

    -3.3744  -0.1447   2.5142   3.2832

          k =-0.0833-0.5833 0.0833 (   786 PWs)   bands (ev):

    -4.4259   1.4057   3.5419   3.7526

          k =-0.2500 0.2500 0.2500 (   784 PWs)   bands (ev):

    -5.1221   1.9521   5.0765   5.0765

          k =-0.4167 0.4167 0.0833 (   787 PWs)   bands (ev):

    -4.4639   1.0207   3.0107   4.9094

          k = 0.4167-0.4167 0.9167 (   781 PWs)   bands (ev):

    -3.3256  -0.3940   1.9431   4.1493

          k = 0.2500-0.2500 0.7500 (   777 PWs)   bands (ev):

    -3.2733  -0.4720   2.4013   3.6834

          k =-0.2500 0.5833 0.2500 (   783 PWs)   bands (ev):

    -4.0539   0.2397   3.4459   4.0457

          k = 0.5833-0.2500 1.0833 (   771 PWs)   bands (ev):

    -3.0848  -0.5166   2.0421   3.2843

          k = 0.4167-0.0833 0.9167 (   767 PWs)   bands (ev):

    -2.2809  -1.2433   1.8923   2.6416

          k =-0.2500-1.0833 0.2500 (   770 PWs)   bands (ev):

    -2.4862  -1.1431   1.7697   3.4943

          k =-0.4167 0.4167 0.4167 (   772 PWs)   bands (ev):

    -3.9727  -0.5027   4.6953   4.6953

          k = 0.4167-0.4167 1.2500 (   778 PWs)   bands (ev):

    -3.3901  -0.8064   2.9085   4.2714

     highest occupied level (ev):     5.6742

!    total energy              =     -19.19314490 Ry
     Harris-Foulkes estimate   =     -19.19314490 Ry
     estimated scf accuracy    <          9.1E-09 Ry

     The total energy is the sum of the following terms:

     one-electron contribution =       4.82678806 Ry
     hartree contribution      =       1.14832755 Ry
     xc contribution           =      -8.57754468 Ry
     ewald contribution        =     -16.59071583 Ry

     convergence has been achieved in   5 iterations

     Writing output data file silicon.10.39.save

     init_run     :      0.35s CPU      0.40s WALL (       1 calls)
     electrons    :      1.31s CPU      2.12s WALL (       1 calls)

     Called by init_run:
     wfcinit      :      0.08s CPU      0.09s WALL (       1 calls)
     potinit      :      0.03s CPU      0.03s WALL (       1 calls)

     Called by electrons:
     c_bands      :      0.77s CPU      1.24s WALL (       6 calls)
     sum_band     :      0.31s CPU      0.49s WALL (       6 calls)
     v_of_rho     :      0.12s CPU      0.17s WALL (       6 calls)
     newd         :      0.13s CPU      0.22s WALL (       6 calls)
     mix_rho      :      0.01s CPU      0.02s WALL (       6 calls)

     Called by c_bands:
     init_us_2    :      0.05s CPU      0.06s WALL (     364 calls)
     cegterg      :      0.65s CPU      1.07s WALL (     168 calls)

     Called by sum_band:
     sum_band:bec :      0.00s CPU      0.00s WALL (     168 calls)
     addusdens    :      0.13s CPU      0.20s WALL (       6 calls)

     Called by *egterg:
     h_psi        :      0.57s CPU      0.86s WALL (     520 calls)
     s_psi        :      0.04s CPU      0.05s WALL (     520 calls)
     g_psi        :      0.00s CPU      0.00s WALL (     324 calls)
     cdiaghg      :      0.04s CPU      0.05s WALL (     464 calls)

     Called by h_psi:
     h_psi:pot    :      0.57s CPU      0.86s WALL (     520 calls)
     h_psi:calbec :      0.07s CPU      0.10s WALL (     520 calls)
     vloc_psi     :      0.45s CPU      0.71s WALL (     520 calls)
     add_vuspsi   :      0.04s CPU      0.05s WALL (     520 calls)

     General routines
     calbec       :      0.09s CPU      0.16s WALL (     688 calls)
     fft          :      0.09s CPU      0.17s WALL (      96 calls)
     ffts         :      0.00s CPU      0.00s WALL (      12 calls)
     fftw         :      0.46s CPU      0.74s WALL (    4620 calls)
     interpolate  :      0.01s CPU      0.01s WALL (      12 calls)
     davcio       :      0.00s CPU      0.00s WALL (      28 calls)

     Parallel routines
     fft_scatter  :      0.26s CPU      0.56s WALL (    4728 calls)

     PWSCF        :     1.88s CPU         2.75s WALL


   This run was terminated on:  10:15: 1  10Nov2017            

=------------------------------------------------------------------------------=
   JOB DONE.
=------------------------------------------------------------------------------=
