
     Program PHONON v.6.1 (svn rev. 13369) starts on 10Nov2017 at 15:31:27 

     This program is part of the open-source Quantum ESPRESSO suite
     for quantum simulation of materials; please cite
         "P. Giannozzi et al., J. Phys.:Condens. Matter 21 395502 (2009);
          URL http://www.quantum-espresso.org", 
     in publications or presentations arising from this work. More details at
     http://www.quantum-espresso.org/quote

     Parallel version (MPI), running on     4 processors
     R & G space division:  proc/nbgrp/npool/nimage =       4

     Reading data from directory:
     ./silicon.10.282.save

   Info: using nr1, nr2, nr3 values from input

   Info: using nr1, nr2, nr3 values from input

     IMPORTANT: XC functional enforced from input :
     Exchange-correlation      = SLA  PW   PBE  PBE ( 1  4  3  4 0 0)
     Any further DFT definition will be discarded
     Please, verify this is what you really want


     Parallelization info
     --------------------
     sticks:   dense  smooth     PW     G-vecs:    dense   smooth      PW
     Min         214     108     37                 4221     1495     284
     Max         215     109     38                 4224     1498     285
     Sum         859     433    151                16889     5985    1139



     Dynamical matrices for ( 4, 4, 4)  uniform grid of q-points
     (   8q-points):
       N         xq(1)         xq(2)         xq(3) 
       1   0.000000000   0.000000000   0.000000000
       2  -0.250000000   0.250000000  -0.250000000
       3   0.500000000  -0.500000000   0.500000000
       4   0.000000000   0.500000000   0.000000000
       5   0.750000000  -0.250000000   0.750000000
       6   0.500000000   0.000000000   0.500000000
       7   0.000000000  -1.000000000   0.000000000
       8  -0.500000000  -1.000000000   0.000000000

     Calculation of q =    0.0000000   0.0000000   0.0000000

                                                                                

     bravais-lattice index     =            2
     lattice parameter (alat)  =      10.2820  a.u.
     unit-cell volume          =     271.7520 (a.u.)^3
     number of atoms/cell      =            2
     number of atomic types    =            1
     kinetic-energy cut-off    =      30.0000  Ry
     charge density cut-off    =     240.0000  Ry
     convergence threshold     =      1.0E-12
     beta                      =       0.7000
     number of iterations used =            4
     Exchange-correlation      = SLA  PW   PBE  PBE ( 1  4  3  4 0 0)


     celldm(1)=   10.28200  celldm(2)=    0.00000  celldm(3)=    0.00000
     celldm(4)=    0.00000  celldm(5)=    0.00000  celldm(6)=    0.00000

     crystal axes: (cart. coord. in units of alat)
               a(1) = ( -0.5000  0.0000  0.5000 )  
               a(2) = (  0.0000  0.5000  0.5000 )  
               a(3) = ( -0.5000  0.5000  0.0000 )  

     reciprocal axes: (cart. coord. in units 2 pi/alat)
               b(1) = ( -1.0000 -1.0000  1.0000 )  
               b(2) = (  1.0000  1.0000  1.0000 )  
               b(3) = ( -1.0000  1.0000 -1.0000 )  


     Atoms inside the unit cell: 

     Cartesian axes

     site n.  atom      mass           positions (alat units)
        1     Si  28.0860   tau(    1) = (    0.00000    0.00000    0.00000  )
        2     Si  28.0860   tau(    2) = (    0.25000    0.25000    0.25000  )

     Computing dynamical matrix for 
                    q = (   0.0000000   0.0000000   0.0000000 )

     49 Sym.Ops. (with q -> -q+G )


     G cutoff =  642.6976  (   4224 G-vectors)     FFT grid: ( 36, 36, 36)
     G cutoff =  321.3488  (   1497 G-vectors)  smooth grid: ( 25, 25, 25)
     number of k points=    10

     PseudoPot. # 1 for Si read from file:
     /home/s1333534/quantum_espresso/qe-6.1/pseudo/si_pbe_v1.uspp.F.UPF.txt
     MD5 check sum: a056efeee980c13900f22a371efd63c1
     Pseudo is Ultrasoft + core correction, Zval =  4.0
     Generated by new atomic code, or converted to UPF format
     Using radial grid of  899 points,  6 beta functions with: 
                l(1) =   0
                l(2) =   0
                l(3) =   1
                l(4) =   1
                l(5) =   2
                l(6) =   2
     Q(r) pseudized with  8 coefficients,  rinner =    0.900   0.900   0.900
                                                       0.900   0.900

     Mode symmetry, O_h (m-3m)  point group:


     Electric field:
     Dielectric constant
     Born effective charges in two ways 


     Atomic displacements:
     There are   2 irreducible representations

     Representation     1      3 modes -T_2g G_25' G_5+  To be done

     Representation     2      3 modes -T_1u G_15  G_4-  To be done



     Alpha used in Ewald sum =   2.5000
     PHONON       :     0.94s CPU         1.28s WALL


     Electric Fields Calculation

      iter #   1 total cpu time :     2.3 secs   av.it.:   5.7
      thresh= 1.000E-02 alpha_mix =  0.700 |ddv_scf|^2 =  1.339E-07

      iter #   2 total cpu time :     2.9 secs   av.it.:  11.7
      thresh= 3.659E-05 alpha_mix =  0.700 |ddv_scf|^2 =  7.724E-09

      iter #   3 total cpu time :     3.6 secs   av.it.:  11.5
      thresh= 8.789E-06 alpha_mix =  0.700 |ddv_scf|^2 =  5.063E-10

      iter #   4 total cpu time :     4.3 secs   av.it.:  10.2
      thresh= 2.250E-06 alpha_mix =  0.700 |ddv_scf|^2 =  3.232E-12

      iter #   5 total cpu time :     4.9 secs   av.it.:  11.1
      thresh= 1.798E-07 alpha_mix =  0.700 |ddv_scf|^2 =  3.209E-15

     End of electric fields calculation

          Dielectric constant in cartesian axis 

          (      13.869479033      -0.000000000      -0.000000000 )
          (      -0.000000000      13.869479033       0.000000000 )
          (      -0.000000000       0.000000000      13.869479033 )

          Effective charges (d Force / dE) in cartesian axis

           atom      1   Si 
      Ex  (       -0.03945       -0.00000        0.00000 )
      Ey  (       -0.00000       -0.03945        0.00000 )
      Ez  (        0.00000        0.00000       -0.03945 )
           atom      2   Si 
      Ex  (       -0.03945       -0.00000       -0.00000 )
      Ey  (       -0.00000       -0.03945        0.00000 )
      Ez  (       -0.00000        0.00000       -0.03945 )


     Representation #  1 modes #   1  2  3

     Self-consistent Calculation

      iter #   1 total cpu time :     6.2 secs   av.it.:   5.1
      thresh= 1.000E-02 alpha_mix =  0.700 |ddv_scf|^2 =  2.357E-08

      iter #   2 total cpu time :     7.0 secs   av.it.:  11.5
      thresh= 1.535E-05 alpha_mix =  0.700 |ddv_scf|^2 =  9.673E-10

      iter #   3 total cpu time :     7.8 secs   av.it.:  11.1
      thresh= 3.110E-06 alpha_mix =  0.700 |ddv_scf|^2 =  6.581E-11

      iter #   4 total cpu time :     8.3 secs   av.it.:  10.1
      thresh= 8.113E-07 alpha_mix =  0.700 |ddv_scf|^2 =  1.597E-13

     End of self-consistent calculation

     Convergence has been achieved 


     Representation #  2 modes #   4  5  6

     Self-consistent Calculation

      iter #   1 total cpu time :     9.2 secs   av.it.:   5.2
      thresh= 1.000E-02 alpha_mix =  0.700 |ddv_scf|^2 =  1.861E-08

      iter #   2 total cpu time :     9.9 secs   av.it.:  11.6
      thresh= 1.364E-05 alpha_mix =  0.700 |ddv_scf|^2 =  1.098E-09

      iter #   3 total cpu time :    10.6 secs   av.it.:  11.1
      thresh= 3.314E-06 alpha_mix =  0.700 |ddv_scf|^2 =  6.792E-11

      iter #   4 total cpu time :    11.2 secs   av.it.:  11.3
      thresh= 8.241E-07 alpha_mix =  0.700 |ddv_scf|^2 =  2.620E-13

     End of self-consistent calculation

     Convergence has been achieved 

     Number of q in the star =    1
     List of q in the star:
          1   0.000000000   0.000000000   0.000000000

          Dielectric constant in cartesian axis 

          (      13.869479033      -0.000000000      -0.000000000 )
          (      -0.000000000      13.869479033       0.000000000 )
          (      -0.000000000       0.000000000      13.869479033 )

          Effective charges (d Force / dE) in cartesian axis

           atom      1   Si 
      Ex  (       -0.03945       -0.00000        0.00000 )
      Ey  (       -0.00000       -0.03945        0.00000 )
      Ez  (        0.00000        0.00000       -0.03945 )
           atom      2   Si 
      Ex  (       -0.03945       -0.00000       -0.00000 )
      Ey  (       -0.00000       -0.03945        0.00000 )
      Ez  (       -0.00000        0.00000       -0.03945 )

          Effective charges (d P / du) in cartesian axis 

           atom      1   Si 
      Px  (       -0.07189        0.00000        0.00000 )
      Py  (        0.00000       -0.07189       -0.00000 )
      Pz  (        0.00000        0.00000       -0.07189 )
           atom      2   Si 
      Px  (       -0.07189       -0.00000       -0.00000 )
      Py  (       -0.00000       -0.07189        0.00000 )
      Pz  (       -0.00000       -0.00000       -0.07189 )

     Diagonalizing the dynamical matrix

     q = (    0.000000000   0.000000000   0.000000000 ) 

 **************************************************************************
     freq (    1) =      -0.469856 [THz] =     -15.672717 [cm-1]
     freq (    2) =      -0.469856 [THz] =     -15.672717 [cm-1]
     freq (    3) =      -0.469856 [THz] =     -15.672717 [cm-1]
     freq (    4) =      15.291696 [THz] =     510.076088 [cm-1]
     freq (    5) =      15.291696 [THz] =     510.076088 [cm-1]
     freq (    6) =      15.291696 [THz] =     510.076088 [cm-1]
 **************************************************************************

     Mode symmetry, O_h (m-3m)  point group:

     freq (  1 -  3) =        -15.7  [cm-1]   --> T_1u G_15  G_4- I  
     freq (  4 -  6) =        510.1  [cm-1]   --> T_2g G_25' G_5+ R  

     Calculation of q =   -0.2500000   0.2500000  -0.2500000

   Info: using nr1, nr2, nr3 values from input

   Info: using nr1, nr2, nr3 values from input

     Parallelization info
     --------------------
     sticks:   dense  smooth     PW     G-vecs:    dense   smooth      PW
     Min         214     108     37                 4221     1495     309
     Max         215     109     38                 4224     1498     312
     Sum         859     433    151                16889     5985    1243



     bravais-lattice index     =            2
     lattice parameter (alat)  =      10.2820  a.u.
     unit-cell volume          =     271.7520 (a.u.)^3
     number of atoms/cell      =            2
     number of atomic types    =            1
     number of electrons       =         8.00
     number of Kohn-Sham states=            4
     kinetic-energy cutoff     =      30.0000  Ry
     charge density cutoff     =     240.0000  Ry
     Exchange-correlation      = SLA  PW   PBE  PBE ( 1  4  3  4 0 0)

     celldm(1)=  10.282000  celldm(2)=   0.000000  celldm(3)=   0.000000
     celldm(4)=   0.000000  celldm(5)=   0.000000  celldm(6)=   0.000000

     crystal axes: (cart. coord. in units of alat)
               a(1) = (  -0.500000   0.000000   0.500000 )  
               a(2) = (   0.000000   0.500000   0.500000 )  
               a(3) = (  -0.500000   0.500000   0.000000 )  

     reciprocal axes: (cart. coord. in units 2 pi/alat)
               b(1) = ( -1.000000 -1.000000  1.000000 )  
               b(2) = (  1.000000  1.000000  1.000000 )  
               b(3) = ( -1.000000  1.000000 -1.000000 )  


     PseudoPot. # 1 for Si read from file:
     /home/s1333534/quantum_espresso/qe-6.1/pseudo/si_pbe_v1.uspp.F.UPF.txt
     MD5 check sum: a056efeee980c13900f22a371efd63c1
     Pseudo is Ultrasoft + core correction, Zval =  4.0
     Generated by new atomic code, or converted to UPF format
     Using radial grid of  899 points,  6 beta functions with: 
                l(1) =   0
                l(2) =   0
                l(3) =   1
                l(4) =   1
                l(5) =   2
                l(6) =   2
     Q(r) pseudized with  8 coefficients,  rinner =    0.900   0.900   0.900
                                                       0.900   0.900

     atomic species   valence    mass     pseudopotential
        Si             4.00    28.08600     Si( 1.00)

     48 Sym. Ops., with inversion, found



   Cartesian axes

     site n.     atom                  positions (alat units)
         1           Si  tau(   1) = (   0.0000000   0.0000000   0.0000000  )
         2           Si  tau(   2) = (   0.2500000   0.2500000   0.2500000  )

     number of k points=   120

     Number of k-points >= 100: set verbosity='high' to print them.

     Dense  grid:    16889 G-vectors     FFT dimensions: (  36,  36,  36)

     Smooth grid:     5985 G-vectors     FFT dimensions: (  25,  25,  25)

     Estimated max dynamical RAM per process >       1.50MB

     Estimated total allocated dynamical RAM >       6.02MB

     The potential is recalculated from file :
     ./_ph0/silicon.10.282.save/charge-density.dat

     Starting wfc are    8 atomic wfcs

     Band Structure Calculation
     Davidson diagonalization with overlap

     ethr =  1.25E-10,  avg # of iterations = 12.2

     total cpu time spent up to now is        1.4 secs

     End of band structure calculation

     Number of k-points >= 100: set verbosity='high' to print the bands.

     highest occupied level (ev):     5.8467

     Writing output data file silicon.10.282.save

                                                                                

     bravais-lattice index     =            2
     lattice parameter (alat)  =      10.2820  a.u.
     unit-cell volume          =     271.7520 (a.u.)^3
     number of atoms/cell      =            2
     number of atomic types    =            1
     kinetic-energy cut-off    =      30.0000  Ry
     charge density cut-off    =     240.0000  Ry
     convergence threshold     =      1.0E-12
     beta                      =       0.7000
     number of iterations used =            4
     Exchange-correlation      = SLA  PW   PBE  PBE ( 1  4  3  4 0 0)


     celldm(1)=   10.28200  celldm(2)=    0.00000  celldm(3)=    0.00000
     celldm(4)=    0.00000  celldm(5)=    0.00000  celldm(6)=    0.00000

     crystal axes: (cart. coord. in units of alat)
               a(1) = ( -0.5000  0.0000  0.5000 )  
               a(2) = (  0.0000  0.5000  0.5000 )  
               a(3) = ( -0.5000  0.5000  0.0000 )  

     reciprocal axes: (cart. coord. in units 2 pi/alat)
               b(1) = ( -1.0000 -1.0000  1.0000 )  
               b(2) = (  1.0000  1.0000  1.0000 )  
               b(3) = ( -1.0000  1.0000 -1.0000 )  


     Atoms inside the unit cell: 

     Cartesian axes

     site n.  atom      mass           positions (alat units)
        1     Si  28.0860   tau(    1) = (    0.00000    0.00000    0.00000  )
        2     Si  28.0860   tau(    2) = (    0.25000    0.25000    0.25000  )

     Computing dynamical matrix for 
                    q = (  -0.2500000   0.2500000  -0.2500000 )

      6 Sym.Ops. (no q -> -q+G )


     G cutoff =  642.6976  (   4224 G-vectors)     FFT grid: ( 36, 36, 36)
     G cutoff =  321.3488  (   1496 G-vectors)  smooth grid: ( 25, 25, 25)
     number of k points=   120

     PseudoPot. # 1 for Si read from file:
     /home/s1333534/quantum_espresso/qe-6.1/pseudo/si_pbe_v1.uspp.F.UPF.txt
     MD5 check sum: a056efeee980c13900f22a371efd63c1
     Pseudo is Ultrasoft + core correction, Zval =  4.0
     Generated by new atomic code, or converted to UPF format
     Using radial grid of  899 points,  6 beta functions with: 
                l(1) =   0
                l(2) =   0
                l(3) =   1
                l(4) =   1
                l(5) =   2
                l(6) =   2
     Q(r) pseudized with  8 coefficients,  rinner =    0.900   0.900   0.900
                                                       0.900   0.900

     Mode symmetry, C_3v (3m)   point group:


     Atomic displacements:
     There are   4 irreducible representations

     Representation     1      1 modes -A_1  L_1  To be done

     Representation     2      1 modes -A_1  L_1  To be done

     Representation     3      2 modes -E    L_3  To be done

     Representation     4      2 modes -E    L_3  To be done



     Alpha used in Ewald sum =   2.5000
     PHONON       :    10.63s CPU        14.39s WALL



     Representation #  1 mode #   1

     Self-consistent Calculation

      iter #   1 total cpu time :    14.8 secs   av.it.:   5.9
      thresh= 1.000E-02 alpha_mix =  0.700 |ddv_scf|^2 =  4.326E-04

      iter #   2 total cpu time :    15.4 secs   av.it.:   9.0
      thresh= 2.080E-03 alpha_mix =  0.700 |ddv_scf|^2 =  6.558E-03

      iter #   3 total cpu time :    15.9 secs   av.it.:   6.9
      thresh= 8.098E-03 alpha_mix =  0.700 |ddv_scf|^2 =  2.719E-07

      iter #   4 total cpu time :    16.6 secs   av.it.:   9.6
      thresh= 5.214E-05 alpha_mix =  0.700 |ddv_scf|^2 =  1.759E-08

      iter #   5 total cpu time :    17.2 secs   av.it.:   9.5
      thresh= 1.326E-05 alpha_mix =  0.700 |ddv_scf|^2 =  3.315E-10

      iter #   6 total cpu time :    17.8 secs   av.it.:   9.7
      thresh= 1.821E-06 alpha_mix =  0.700 |ddv_scf|^2 =  9.591E-10

      iter #   7 total cpu time :    18.3 secs   av.it.:   7.6
      thresh= 3.097E-06 alpha_mix =  0.700 |ddv_scf|^2 =  3.879E-11

      iter #   8 total cpu time :    18.8 secs   av.it.:   9.2
      thresh= 6.228E-07 alpha_mix =  0.700 |ddv_scf|^2 =  5.003E-13

     End of self-consistent calculation

     Convergence has been achieved 


     Representation #  2 mode #   2

     Self-consistent Calculation

      iter #   1 total cpu time :    19.4 secs   av.it.:   5.9
      thresh= 1.000E-02 alpha_mix =  0.700 |ddv_scf|^2 =  4.326E-04

      iter #   2 total cpu time :    20.0 secs   av.it.:   9.0
      thresh= 2.080E-03 alpha_mix =  0.700 |ddv_scf|^2 =  6.558E-03

      iter #   3 total cpu time :    20.5 secs   av.it.:   6.9
      thresh= 8.098E-03 alpha_mix =  0.700 |ddv_scf|^2 =  2.719E-07

      iter #   4 total cpu time :    21.1 secs   av.it.:   9.6
      thresh= 5.214E-05 alpha_mix =  0.700 |ddv_scf|^2 =  1.759E-08

      iter #   5 total cpu time :    21.7 secs   av.it.:   9.5
      thresh= 1.326E-05 alpha_mix =  0.700 |ddv_scf|^2 =  3.315E-10

      iter #   6 total cpu time :    22.4 secs   av.it.:   9.7
      thresh= 1.821E-06 alpha_mix =  0.700 |ddv_scf|^2 =  9.591E-10

      iter #   7 total cpu time :    22.9 secs   av.it.:   7.6
      thresh= 3.097E-06 alpha_mix =  0.700 |ddv_scf|^2 =  3.879E-11

      iter #   8 total cpu time :    23.5 secs   av.it.:   9.2
      thresh= 6.228E-07 alpha_mix =  0.700 |ddv_scf|^2 =  5.003E-13

     End of self-consistent calculation

     Convergence has been achieved 


     Representation #  3 modes #   3  4

     Self-consistent Calculation

      iter #   1 total cpu time :    24.4 secs   av.it.:   5.2
      thresh= 1.000E-02 alpha_mix =  0.700 |ddv_scf|^2 =  6.643E-08

      iter #   2 total cpu time :    25.6 secs   av.it.:  11.3
      thresh= 2.577E-05 alpha_mix =  0.700 |ddv_scf|^2 =  4.270E-09

      iter #   3 total cpu time :    26.9 secs   av.it.:  11.1
      thresh= 6.535E-06 alpha_mix =  0.700 |ddv_scf|^2 =  2.263E-10

      iter #   4 total cpu time :    28.0 secs   av.it.:  11.0
      thresh= 1.504E-06 alpha_mix =  0.700 |ddv_scf|^2 =  8.519E-13

     End of self-consistent calculation

     Convergence has been achieved 


     Representation #  4 modes #   5  6

     Self-consistent Calculation

      iter #   1 total cpu time :    28.9 secs   av.it.:   5.3
      thresh= 1.000E-02 alpha_mix =  0.700 |ddv_scf|^2 =  6.644E-08

      iter #   2 total cpu time :    30.2 secs   av.it.:  11.4
      thresh= 2.578E-05 alpha_mix =  0.700 |ddv_scf|^2 =  4.269E-09

      iter #   3 total cpu time :    31.4 secs   av.it.:  11.2
      thresh= 6.534E-06 alpha_mix =  0.700 |ddv_scf|^2 =  2.262E-10

      iter #   4 total cpu time :    32.6 secs   av.it.:  11.0
      thresh= 1.504E-06 alpha_mix =  0.700 |ddv_scf|^2 =  8.559E-13

     End of self-consistent calculation

     Convergence has been achieved 

     Number of q in the star =    8
     List of q in the star:
          1  -0.250000000   0.250000000  -0.250000000
          2   0.250000000  -0.250000000  -0.250000000
          3   0.250000000  -0.250000000   0.250000000
          4   0.250000000   0.250000000   0.250000000
          5  -0.250000000  -0.250000000  -0.250000000
          6  -0.250000000  -0.250000000   0.250000000
          7  -0.250000000   0.250000000   0.250000000
          8   0.250000000   0.250000000  -0.250000000

     Diagonalizing the dynamical matrix

     q = (   -0.250000000   0.250000000  -0.250000000 ) 

 **************************************************************************
     freq (    1) =       2.755693 [THz] =      91.920031 [cm-1]
     freq (    2) =       2.755693 [THz] =      91.920031 [cm-1]
     freq (    3) =       6.833827 [THz] =     227.951916 [cm-1]
     freq (    4) =      14.438544 [THz] =     481.618002 [cm-1]
     freq (    5) =      14.738225 [THz] =     491.614274 [cm-1]
     freq (    6) =      14.738225 [THz] =     491.614274 [cm-1]
 **************************************************************************

     Mode symmetry, C_3v (3m)   point group:

     freq (  1 -  2) =         91.9  [cm-1]   --> E    L_3           
     freq (  3 -  3) =        228.0  [cm-1]   --> A_1  L_1           
     freq (  4 -  4) =        481.6  [cm-1]   --> A_1  L_1           
     freq (  5 -  6) =        491.6  [cm-1]   --> E    L_3           

     Calculation of q =    0.5000000  -0.5000000   0.5000000

   Info: using nr1, nr2, nr3 values from input

   Info: using nr1, nr2, nr3 values from input

     Parallelization info
     --------------------
     sticks:   dense  smooth     PW     G-vecs:    dense   smooth      PW
     Min         214     108     40                 4221     1495     351
     Max         215     109     41                 4224     1498     354
     Sum         859     433    163                16889     5985    1411



     bravais-lattice index     =            2
     lattice parameter (alat)  =      10.2820  a.u.
     unit-cell volume          =     271.7520 (a.u.)^3
     number of atoms/cell      =            2
     number of atomic types    =            1
     number of electrons       =         8.00
     number of Kohn-Sham states=            4
     kinetic-energy cutoff     =      30.0000  Ry
     charge density cutoff     =     240.0000  Ry
     Exchange-correlation      = SLA  PW   PBE  PBE ( 1  4  3  4 0 0)

     celldm(1)=  10.282000  celldm(2)=   0.000000  celldm(3)=   0.000000
     celldm(4)=   0.000000  celldm(5)=   0.000000  celldm(6)=   0.000000

     crystal axes: (cart. coord. in units of alat)
               a(1) = (  -0.500000   0.000000   0.500000 )  
               a(2) = (   0.000000   0.500000   0.500000 )  
               a(3) = (  -0.500000   0.500000   0.000000 )  

     reciprocal axes: (cart. coord. in units 2 pi/alat)
               b(1) = ( -1.000000 -1.000000  1.000000 )  
               b(2) = (  1.000000  1.000000  1.000000 )  
               b(3) = ( -1.000000  1.000000 -1.000000 )  


     PseudoPot. # 1 for Si read from file:
     /home/s1333534/quantum_espresso/qe-6.1/pseudo/si_pbe_v1.uspp.F.UPF.txt
     MD5 check sum: a056efeee980c13900f22a371efd63c1
     Pseudo is Ultrasoft + core correction, Zval =  4.0
     Generated by new atomic code, or converted to UPF format
     Using radial grid of  899 points,  6 beta functions with: 
                l(1) =   0
                l(2) =   0
                l(3) =   1
                l(4) =   1
                l(5) =   2
                l(6) =   2
     Q(r) pseudized with  8 coefficients,  rinner =    0.900   0.900   0.900
                                                       0.900   0.900

     atomic species   valence    mass     pseudopotential
        Si             4.00    28.08600     Si( 1.00)

     48 Sym. Ops., with inversion, found



   Cartesian axes

     site n.     atom                  positions (alat units)
         1           Si  tau(   1) = (   0.0000000   0.0000000   0.0000000  )
         2           Si  tau(   2) = (   0.2500000   0.2500000   0.2500000  )

     number of k points=    60
                       cart. coord. in units 2pi/alat
        k(    1) = (  -0.1250000   0.1250000   0.1250000), wk =   0.0468750
        k(    2) = (   0.3750000  -0.3750000   0.6250000), wk =   0.0000000
        k(    3) = (  -0.3750000   0.3750000  -0.1250000), wk =   0.0468750
        k(    4) = (   0.1250000  -0.1250000   0.3750000), wk =   0.0000000
        k(    5) = (   0.3750000  -0.3750000   0.6250000), wk =   0.0468750
        k(    6) = (   0.8750000  -0.8750000   1.1250000), wk =   0.0000000
        k(    7) = (   0.1250000  -0.1250000   0.3750000), wk =   0.0468750
        k(    8) = (   0.6250000  -0.6250000   0.8750000), wk =   0.0000000
        k(    9) = (  -0.1250000   0.6250000   0.1250000), wk =   0.0937500
        k(   10) = (   0.3750000   0.1250000   0.6250000), wk =   0.0000000
        k(   11) = (   0.6250000  -0.1250000   0.8750000), wk =   0.0937500
        k(   12) = (   1.1250000  -0.6250000   1.3750000), wk =   0.0000000
        k(   13) = (   0.3750000   0.1250000   0.6250000), wk =   0.0937500
        k(   14) = (   0.8750000  -0.3750000   1.1250000), wk =   0.0000000
        k(   15) = (  -0.1250000  -0.8750000   0.1250000), wk =   0.0937500
        k(   16) = (   0.3750000  -1.3750000   0.6250000), wk =   0.0000000
        k(   17) = (  -0.3750000   0.3750000   0.3750000), wk =   0.0468750
        k(   18) = (   0.1250000  -0.1250000   0.8750000), wk =   0.0000000
        k(   19) = (   0.3750000  -0.3750000   1.1250000), wk =   0.0468750
        k(   20) = (   0.8750000  -0.8750000   1.6250000), wk =   0.0000000
        k(   21) = (   0.1250000  -0.1250000   0.1250000), wk =   0.0156250
        k(   22) = (   0.6250000  -0.6250000   0.6250000), wk =   0.0000000
        k(   23) = (  -0.3750000  -0.3750000  -0.1250000), wk =   0.0937500
        k(   24) = (   0.1250000  -0.8750000   0.3750000), wk =   0.0000000
        k(   25) = (  -0.1250000  -0.3750000   0.3750000), wk =   0.0468750
        k(   26) = (   0.3750000  -0.8750000   0.8750000), wk =   0.0000000
        k(   27) = (   0.3750000   0.3750000   0.6250000), wk =   0.0937500
        k(   28) = (   0.8750000  -0.1250000   1.1250000), wk =   0.0000000
        k(   29) = (   0.6250000   0.3750000  -0.3750000), wk =   0.0468750
        k(   30) = (   1.1250000  -0.1250000   0.1250000), wk =   0.0000000
        k(   31) = (   0.1250000   0.1250000   0.3750000), wk =   0.0937500
        k(   32) = (   0.6250000  -0.3750000   0.8750000), wk =   0.0000000
        k(   33) = (   0.3750000   0.1250000  -0.1250000), wk =   0.0468750
        k(   34) = (   0.8750000  -0.3750000   0.3750000), wk =   0.0000000
        k(   35) = (  -0.1250000  -0.6250000  -0.1250000), wk =   0.0468750
        k(   36) = (   0.3750000  -1.1250000   0.3750000), wk =   0.0000000
        k(   37) = (   0.1250000  -0.6250000   0.1250000), wk =   0.0468750
        k(   38) = (   0.6250000  -1.1250000   0.6250000), wk =   0.0000000
        k(   39) = (   0.6250000   0.1250000   0.8750000), wk =   0.0937500
        k(   40) = (   1.1250000  -0.3750000   1.3750000), wk =   0.0000000
        k(   41) = (  -0.8750000   0.1250000   0.6250000), wk =   0.0937500
        k(   42) = (  -0.3750000  -0.3750000   1.1250000), wk =   0.0000000
        k(   43) = (   0.8750000   0.1250000  -0.6250000), wk =   0.0937500
        k(   44) = (   1.3750000  -0.3750000  -0.1250000), wk =   0.0000000
        k(   45) = (   0.3750000  -0.1250000   0.6250000), wk =   0.0937500
        k(   46) = (   0.8750000  -0.6250000   1.1250000), wk =   0.0000000
        k(   47) = (  -0.6250000  -0.1250000   0.3750000), wk =   0.0937500
        k(   48) = (  -0.1250000  -0.6250000   0.8750000), wk =   0.0000000
        k(   49) = (   0.6250000  -0.1250000  -0.3750000), wk =   0.0937500
        k(   50) = (   1.1250000  -0.6250000   0.1250000), wk =   0.0000000
        k(   51) = (  -0.1250000   0.8750000  -0.1250000), wk =   0.0468750
        k(   52) = (   0.3750000   0.3750000   0.3750000), wk =   0.0000000
        k(   53) = (   0.1250000   0.8750000   0.1250000), wk =   0.0468750
        k(   54) = (   0.6250000   0.3750000   0.6250000), wk =   0.0000000
        k(   55) = (   0.3750000  -0.3750000   0.3750000), wk =   0.0156250
        k(   56) = (   0.8750000  -0.8750000   0.8750000), wk =   0.0000000
        k(   57) = (   0.3750000   0.3750000   1.1250000), wk =   0.0937500
        k(   58) = (   0.8750000  -0.1250000   1.6250000), wk =   0.0000000
        k(   59) = (   1.1250000   0.3750000  -0.3750000), wk =   0.0468750
        k(   60) = (   1.6250000  -0.1250000   0.1250000), wk =   0.0000000

     Dense  grid:    16889 G-vectors     FFT dimensions: (  36,  36,  36)

     Smooth grid:     5985 G-vectors     FFT dimensions: (  25,  25,  25)

     Estimated max dynamical RAM per process >       1.50MB

     Estimated total allocated dynamical RAM >       6.02MB

     The potential is recalculated from file :
     ./_ph0/silicon.10.282.save/charge-density.dat

     Starting wfc are    8 atomic wfcs

     Band Structure Calculation
     Davidson diagonalization with overlap

     ethr =  1.25E-10,  avg # of iterations = 12.2

     total cpu time spent up to now is        2.4 secs

     End of band structure calculation

          k =-0.1250 0.1250 0.1250 (   746 PWs)   bands (ev):

    -5.5827   4.5376   5.8467   5.8467

          k = 0.3750-0.3750 0.6250 (   755 PWs)   bands (ev):

    -3.3831  -0.5885   3.8638   4.5798

          k =-0.3750 0.3750-0.1250 (   757 PWs)   bands (ev):

    -4.5424   1.5209   3.8361   5.3629

          k = 0.1250-0.1250 0.3750 (   757 PWs)   bands (ev):

    -5.0481   2.9149   4.8237   4.8963

          k = 0.3750-0.3750 0.6250 (   755 PWs)   bands (ev):

    -3.3831  -0.5885   3.8638   4.5798

          k = 0.8750-0.8750 1.1250 (   746 PWs)   bands (ev):

    -5.5827   4.5376   5.8467   5.8467

          k = 0.1250-0.1250 0.3750 (   757 PWs)   bands (ev):

    -5.0481   2.9149   4.8237   4.8963

          k = 0.6250-0.6250 0.8750 (   757 PWs)   bands (ev):

    -4.5424   1.5209   3.8361   5.3629

          k =-0.1250 0.6250 0.1250 (   757 PWs)   bands (ev):

    -4.0034   1.1999   3.4796   3.9387

          k = 0.3750 0.1250 0.6250 (   756 PWs)   bands (ev):

    -3.5807   0.3075   2.8319   4.2165

          k = 0.6250-0.1250 0.8750 (   749 PWs)   bands (ev):

    -2.3383  -0.7828   2.1008   3.1938

          k = 1.1250-0.6250 1.3750 (   757 PWs)   bands (ev):

    -4.5424   1.5209   3.8361   5.3629

          k = 0.3750 0.1250 0.6250 (   756 PWs)   bands (ev):

    -3.5807   0.3075   2.8319   4.2165

          k = 0.8750-0.3750 1.1250 (   757 PWs)   bands (ev):

    -4.0034   1.1999   3.4796   3.9387

          k =-0.1250-0.8750 0.1250 (   757 PWs)   bands (ev):

    -2.5118  -0.6823   2.7208   3.4664

          k = 0.3750-1.3750 0.6250 (   755 PWs)   bands (ev):

    -3.3831  -0.5885   3.8638   4.5798

          k =-0.3750 0.3750 0.3750 (   763 PWs)   bands (ev):

    -4.1022   0.2087   5.0518   5.0518

          k = 0.1250-0.1250 0.8750 (   757 PWs)   bands (ev):

    -2.5118  -0.6823   2.7208   3.4664

          k = 0.3750-0.3750 1.1250 (   757 PWs)   bands (ev):

    -2.8813  -0.4882   2.1655   4.2578

          k = 0.8750-0.8750 1.6250 (   757 PWs)   bands (ev):

    -4.0034   1.1999   3.4796   3.9387

          k = 0.1250-0.1250 0.1250 (   746 PWs)   bands (ev):

    -5.5827   4.5376   5.8467   5.8467

          k = 0.6250-0.6250 0.6250 (   763 PWs)   bands (ev):

    -4.1022   0.2087   5.0518   5.0518

          k =-0.3750-0.3750-0.1250 (   757 PWs)   bands (ev):

    -4.5424   1.5209   3.8361   5.3629

          k = 0.1250-0.8750 0.3750 (   749 PWs)   bands (ev):

    -2.3383  -0.7828   2.1008   3.1938

          k =-0.1250-0.3750 0.3750 (   757 PWs)   bands (ev):

    -4.5424   1.5209   3.8361   5.3629

          k = 0.3750-0.8750 0.8750 (   757 PWs)   bands (ev):

    -4.0034   1.1999   3.4796   3.9387

          k = 0.3750 0.3750 0.6250 (   755 PWs)   bands (ev):

    -3.3831  -0.5885   3.8638   4.5798

          k = 0.8750-0.1250 1.1250 (   757 PWs)   bands (ev):

    -2.5118  -0.6823   2.7208   3.4664

          k = 0.6250 0.3750-0.3750 (   755 PWs)   bands (ev):

    -3.3831  -0.5885   3.8638   4.5798

          k = 1.1250-0.1250 0.1250 (   757 PWs)   bands (ev):

    -2.5118  -0.6823   2.7208   3.4664

          k = 0.1250 0.1250 0.3750 (   757 PWs)   bands (ev):

    -5.0481   2.9149   4.8237   4.8963

          k = 0.6250-0.3750 0.8750 (   756 PWs)   bands (ev):

    -3.5807   0.3075   2.8319   4.2165

          k = 0.3750 0.1250-0.1250 (   757 PWs)   bands (ev):

    -5.0481   2.9149   4.8237   4.8963

          k = 0.8750-0.3750 0.3750 (   757 PWs)   bands (ev):

    -2.8813  -0.4882   2.1655   4.2578

          k =-0.1250-0.6250-0.1250 (   757 PWs)   bands (ev):

    -4.0034   1.1999   3.4796   3.9387

          k = 0.3750-1.1250 0.3750 (   757 PWs)   bands (ev):

    -2.8813  -0.4882   2.1655   4.2578

          k = 0.1250-0.6250 0.1250 (   757 PWs)   bands (ev):

    -4.0034   1.1999   3.4796   3.9387

          k = 0.6250-1.1250 0.6250 (   757 PWs)   bands (ev):

    -4.5424   1.5209   3.8361   5.3629

          k = 0.6250 0.1250 0.8750 (   749 PWs)   bands (ev):

    -2.3383  -0.7828   2.1008   3.1938

          k = 1.1250-0.3750 1.3750 (   756 PWs)   bands (ev):

    -3.5807   0.3075   2.8319   4.2165

          k =-0.8750 0.1250 0.6250 (   749 PWs)   bands (ev):

    -2.3383  -0.7828   2.1008   3.1938

          k =-0.3750-0.3750 1.1250 (   757 PWs)   bands (ev):

    -2.8813  -0.4882   2.1655   4.2578

          k = 0.8750 0.1250-0.6250 (   749 PWs)   bands (ev):

    -2.3383  -0.7828   2.1008   3.1938

          k = 1.3750-0.3750-0.1250 (   756 PWs)   bands (ev):

    -3.5807   0.3075   2.8319   4.2165

          k = 0.3750-0.1250 0.6250 (   756 PWs)   bands (ev):

    -3.5807   0.3075   2.8319   4.2165

          k = 0.8750-0.6250 1.1250 (   757 PWs)   bands (ev):

    -5.0481   2.9149   4.8237   4.8963

          k =-0.6250-0.1250 0.3750 (   756 PWs)   bands (ev):

    -3.5807   0.3075   2.8319   4.2165

          k =-0.1250-0.6250 0.8750 (   749 PWs)   bands (ev):

    -2.3383  -0.7828   2.1008   3.1938

          k = 0.6250-0.1250-0.3750 (   756 PWs)   bands (ev):

    -3.5807   0.3075   2.8319   4.2165

          k = 1.1250-0.6250 0.1250 (   749 PWs)   bands (ev):

    -2.3383  -0.7828   2.1008   3.1938

          k =-0.1250 0.8750-0.1250 (   757 PWs)   bands (ev):

    -2.5118  -0.6823   2.7208   3.4664

          k = 0.3750 0.3750 0.3750 (   763 PWs)   bands (ev):

    -4.1022   0.2087   5.0518   5.0518

          k = 0.1250 0.8750 0.1250 (   757 PWs)   bands (ev):

    -2.5118  -0.6823   2.7208   3.4664

          k = 0.6250 0.3750 0.6250 (   755 PWs)   bands (ev):

    -3.3831  -0.5885   3.8638   4.5798

          k = 0.3750-0.3750 0.3750 (   763 PWs)   bands (ev):

    -4.1022   0.2087   5.0518   5.0518

          k = 0.8750-0.8750 0.8750 (   746 PWs)   bands (ev):

    -5.5827   4.5376   5.8467   5.8467

          k = 0.3750 0.3750 1.1250 (   757 PWs)   bands (ev):

    -2.8813  -0.4882   2.1655   4.2578

          k = 0.8750-0.1250 1.6250 (   749 PWs)   bands (ev):

    -2.3383  -0.7828   2.1008   3.1938

          k = 1.1250 0.3750-0.3750 (   757 PWs)   bands (ev):

    -2.8813  -0.4882   2.1655   4.2578

          k = 1.6250-0.1250 0.1250 (   757 PWs)   bands (ev):

    -5.0481   2.9149   4.8237   4.8963

     highest occupied level (ev):     5.8467

     Writing output data file silicon.10.282.save

                                                                                

     bravais-lattice index     =            2
     lattice parameter (alat)  =      10.2820  a.u.
     unit-cell volume          =     271.7520 (a.u.)^3
     number of atoms/cell      =            2
     number of atomic types    =            1
     kinetic-energy cut-off    =      30.0000  Ry
     charge density cut-off    =     240.0000  Ry
     convergence threshold     =      1.0E-12
     beta                      =       0.7000
     number of iterations used =            4
     Exchange-correlation      = SLA  PW   PBE  PBE ( 1  4  3  4 0 0)


     celldm(1)=   10.28200  celldm(2)=    0.00000  celldm(3)=    0.00000
     celldm(4)=    0.00000  celldm(5)=    0.00000  celldm(6)=    0.00000

     crystal axes: (cart. coord. in units of alat)
               a(1) = ( -0.5000  0.0000  0.5000 )  
               a(2) = (  0.0000  0.5000  0.5000 )  
               a(3) = ( -0.5000  0.5000  0.0000 )  

     reciprocal axes: (cart. coord. in units 2 pi/alat)
               b(1) = ( -1.0000 -1.0000  1.0000 )  
               b(2) = (  1.0000  1.0000  1.0000 )  
               b(3) = ( -1.0000  1.0000 -1.0000 )  


     Atoms inside the unit cell: 

     Cartesian axes

     site n.  atom      mass           positions (alat units)
        1     Si  28.0860   tau(    1) = (    0.00000    0.00000    0.00000  )
        2     Si  28.0860   tau(    2) = (    0.25000    0.25000    0.25000  )

     Computing dynamical matrix for 
                    q = (   0.5000000  -0.5000000   0.5000000 )

     13 Sym.Ops. (with q -> -q+G )


     G cutoff =  642.6976  (   4224 G-vectors)     FFT grid: ( 36, 36, 36)
     G cutoff =  321.3488  (   1497 G-vectors)  smooth grid: ( 25, 25, 25)
     number of k points=    60

     PseudoPot. # 1 for Si read from file:
     /home/s1333534/quantum_espresso/qe-6.1/pseudo/si_pbe_v1.uspp.F.UPF.txt
     MD5 check sum: a056efeee980c13900f22a371efd63c1
     Pseudo is Ultrasoft + core correction, Zval =  4.0
     Generated by new atomic code, or converted to UPF format
     Using radial grid of  899 points,  6 beta functions with: 
                l(1) =   0
                l(2) =   0
                l(3) =   1
                l(4) =   1
                l(5) =   2
                l(6) =   2
     Q(r) pseudized with  8 coefficients,  rinner =    0.900   0.900   0.900
                                                       0.900   0.900


     Atomic displacements:
     There are   4 irreducible representations

     Representation     1      1 modes -  To be done

     Representation     2      1 modes -  To be done

     Representation     3      2 modes -  To be done

     Representation     4      2 modes -  To be done



     Alpha used in Ewald sum =   2.5000
     PHONON       :    27.41s CPU        34.73s WALL



     Representation #  1 mode #   1

     Self-consistent Calculation

      iter #   1 total cpu time :    35.0 secs   av.it.:   5.1
      thresh= 1.000E-02 alpha_mix =  0.700 |ddv_scf|^2 =  4.242E-06

      iter #   2 total cpu time :    35.4 secs   av.it.:   9.9
      thresh= 2.060E-04 alpha_mix =  0.700 |ddv_scf|^2 =  3.844E-06

      iter #   3 total cpu time :    35.8 secs   av.it.:   9.2
      thresh= 1.961E-04 alpha_mix =  0.700 |ddv_scf|^2 =  2.347E-09

      iter #   4 total cpu time :    36.2 secs   av.it.:   9.4
      thresh= 4.844E-06 alpha_mix =  0.700 |ddv_scf|^2 =  2.257E-11

      iter #   5 total cpu time :    36.6 secs   av.it.:   9.3
      thresh= 4.751E-07 alpha_mix =  0.700 |ddv_scf|^2 =  3.063E-13

     End of self-consistent calculation

     Convergence has been achieved 


     Representation #  2 mode #   2

     Self-consistent Calculation

      iter #   1 total cpu time :    37.1 secs   av.it.:   6.0
      thresh= 1.000E-02 alpha_mix =  0.700 |ddv_scf|^2 =  6.038E-05

      iter #   2 total cpu time :    37.6 secs   av.it.:   9.7
      thresh= 7.770E-04 alpha_mix =  0.700 |ddv_scf|^2 =  1.872E-04

      iter #   3 total cpu time :    38.0 secs   av.it.:   8.6
      thresh= 1.368E-03 alpha_mix =  0.700 |ddv_scf|^2 =  1.262E-08

      iter #   4 total cpu time :    38.4 secs   av.it.:   9.8
      thresh= 1.124E-05 alpha_mix =  0.700 |ddv_scf|^2 =  6.389E-10

      iter #   5 total cpu time :    38.8 secs   av.it.:  10.2
      thresh= 2.528E-06 alpha_mix =  0.700 |ddv_scf|^2 =  1.980E-11

      iter #   6 total cpu time :    39.2 secs   av.it.:   9.7
      thresh= 4.449E-07 alpha_mix =  0.700 |ddv_scf|^2 =  1.508E-13

     End of self-consistent calculation

     Convergence has been achieved 


     Representation #  3 modes #   3  4

     Self-consistent Calculation

      iter #   1 total cpu time :    39.8 secs   av.it.:   5.1
      thresh= 1.000E-02 alpha_mix =  0.700 |ddv_scf|^2 =  2.711E-08

      iter #   2 total cpu time :    40.6 secs   av.it.:  10.9
      thresh= 1.647E-05 alpha_mix =  0.700 |ddv_scf|^2 =  1.604E-09

      iter #   3 total cpu time :    41.3 secs   av.it.:  10.7
      thresh= 4.005E-06 alpha_mix =  0.700 |ddv_scf|^2 =  5.294E-11

      iter #   4 total cpu time :    42.0 secs   av.it.:  10.7
      thresh= 7.276E-07 alpha_mix =  0.700 |ddv_scf|^2 =  4.346E-13

     End of self-consistent calculation

     Convergence has been achieved 


     Representation #  4 modes #   5  6

     Self-consistent Calculation

      iter #   1 total cpu time :    42.8 secs   av.it.:   5.1
      thresh= 1.000E-02 alpha_mix =  0.700 |ddv_scf|^2 =  1.384E-07

      iter #   2 total cpu time :    43.6 secs   av.it.:  11.1
      thresh= 3.721E-05 alpha_mix =  0.700 |ddv_scf|^2 =  1.109E-08

      iter #   3 total cpu time :    44.4 secs   av.it.:  10.9
      thresh= 1.053E-05 alpha_mix =  0.700 |ddv_scf|^2 =  2.924E-10

      iter #   4 total cpu time :    45.1 secs   av.it.:   9.8
      thresh= 1.710E-06 alpha_mix =  0.700 |ddv_scf|^2 =  5.188E-13

     End of self-consistent calculation

     Convergence has been achieved 

     Number of q in the star =    4
     List of q in the star:
          1   0.500000000  -0.500000000   0.500000000
          2   0.500000000   0.500000000   0.500000000
          3  -0.500000000   0.500000000   0.500000000
          4   0.500000000   0.500000000  -0.500000000

     Diagonalizing the dynamical matrix

     q = (    0.500000000  -0.500000000   0.500000000 ) 

 **************************************************************************
     freq (    1) =       3.221635 [THz] =     107.462168 [cm-1]
     freq (    2) =       3.221635 [THz] =     107.462168 [cm-1]
     freq (    3) =      11.156921 [THz] =     372.154813 [cm-1]
     freq (    4) =      12.259319 [THz] =     408.926855 [cm-1]
     freq (    5) =      14.546468 [THz] =     485.217950 [cm-1]
     freq (    6) =      14.546468 [THz] =     485.217950 [cm-1]
 **************************************************************************

     Calculation of q =    0.0000000   0.5000000   0.0000000

   Info: using nr1, nr2, nr3 values from input

   Info: using nr1, nr2, nr3 values from input

     Parallelization info
     --------------------
     sticks:   dense  smooth     PW     G-vecs:    dense   smooth      PW
     Min         214     108     37                 4221     1495     309
     Max         215     109     38                 4224     1498     312
     Sum         859     433    151                16889     5985    1243



     bravais-lattice index     =            2
     lattice parameter (alat)  =      10.2820  a.u.
     unit-cell volume          =     271.7520 (a.u.)^3
     number of atoms/cell      =            2
     number of atomic types    =            1
     number of electrons       =         8.00
     number of Kohn-Sham states=            4
     kinetic-energy cutoff     =      30.0000  Ry
     charge density cutoff     =     240.0000  Ry
     Exchange-correlation      = SLA  PW   PBE  PBE ( 1  4  3  4 0 0)

     celldm(1)=  10.282000  celldm(2)=   0.000000  celldm(3)=   0.000000
     celldm(4)=   0.000000  celldm(5)=   0.000000  celldm(6)=   0.000000

     crystal axes: (cart. coord. in units of alat)
               a(1) = (  -0.500000   0.000000   0.500000 )  
               a(2) = (   0.000000   0.500000   0.500000 )  
               a(3) = (  -0.500000   0.500000   0.000000 )  

     reciprocal axes: (cart. coord. in units 2 pi/alat)
               b(1) = ( -1.000000 -1.000000  1.000000 )  
               b(2) = (  1.000000  1.000000  1.000000 )  
               b(3) = ( -1.000000  1.000000 -1.000000 )  


     PseudoPot. # 1 for Si read from file:
     /home/s1333534/quantum_espresso/qe-6.1/pseudo/si_pbe_v1.uspp.F.UPF.txt
     MD5 check sum: a056efeee980c13900f22a371efd63c1
     Pseudo is Ultrasoft + core correction, Zval =  4.0
     Generated by new atomic code, or converted to UPF format
     Using radial grid of  899 points,  6 beta functions with: 
                l(1) =   0
                l(2) =   0
                l(3) =   1
                l(4) =   1
                l(5) =   2
                l(6) =   2
     Q(r) pseudized with  8 coefficients,  rinner =    0.900   0.900   0.900
                                                       0.900   0.900

     atomic species   valence    mass     pseudopotential
        Si             4.00    28.08600     Si( 1.00)

     48 Sym. Ops., with inversion, found



   Cartesian axes

     site n.     atom                  positions (alat units)
         1           Si  tau(   1) = (   0.0000000   0.0000000   0.0000000  )
         2           Si  tau(   2) = (   0.2500000   0.2500000   0.2500000  )

     number of k points=    80
                       cart. coord. in units 2pi/alat
        k(    1) = (  -0.1250000   0.1250000   0.1250000), wk =   0.0312500
        k(    2) = (  -0.1250000   0.6250000   0.1250000), wk =   0.0000000
        k(    3) = (  -0.3750000   0.3750000  -0.1250000), wk =   0.0625000
        k(    4) = (  -0.3750000   0.8750000  -0.1250000), wk =   0.0000000
        k(    5) = (   0.3750000  -0.3750000   0.6250000), wk =   0.0625000
        k(    6) = (   0.3750000   0.1250000   0.6250000), wk =   0.0000000
        k(    7) = (   0.1250000  -0.1250000   0.3750000), wk =   0.0625000
        k(    8) = (   0.1250000   0.3750000   0.3750000), wk =   0.0000000
        k(    9) = (  -0.1250000   0.6250000   0.1250000), wk =   0.0312500
        k(   10) = (  -0.1250000   1.1250000   0.1250000), wk =   0.0000000
        k(   11) = (   0.6250000  -0.1250000   0.8750000), wk =   0.0625000
        k(   12) = (   0.6250000   0.3750000   0.8750000), wk =   0.0000000
        k(   13) = (   0.3750000   0.1250000   0.6250000), wk =   0.0625000
        k(   14) = (   0.3750000   0.6250000   0.6250000), wk =   0.0000000
        k(   15) = (  -0.1250000  -0.8750000   0.1250000), wk =   0.0312500
        k(   16) = (  -0.1250000  -0.3750000   0.1250000), wk =   0.0000000
        k(   17) = (  -0.3750000   0.3750000   0.3750000), wk =   0.0312500
        k(   18) = (  -0.3750000   0.8750000   0.3750000), wk =   0.0000000
        k(   19) = (   0.3750000  -0.3750000   1.1250000), wk =   0.0625000
        k(   20) = (   0.3750000   0.1250000   1.1250000), wk =   0.0000000
        k(   21) = (  -0.1250000  -0.1250000   0.1250000), wk =   0.0312500
        k(   22) = (  -0.1250000   0.3750000   0.1250000), wk =   0.0000000
        k(   23) = (   0.1250000  -0.3750000   0.3750000), wk =   0.0625000
        k(   24) = (   0.1250000   0.1250000   0.3750000), wk =   0.0000000
        k(   25) = (   0.3750000  -0.1250000   0.3750000), wk =   0.0312500
        k(   26) = (   0.3750000   0.3750000   0.3750000), wk =   0.0000000
        k(   27) = (   0.3750000   0.1250000   0.3750000), wk =   0.0312500
        k(   28) = (   0.3750000   0.6250000   0.3750000), wk =   0.0000000
        k(   29) = (  -0.6250000   0.3750000  -0.3750000), wk =   0.0625000
        k(   30) = (  -0.6250000   0.8750000  -0.3750000), wk =   0.0000000
        k(   31) = (  -0.3750000   0.6250000  -0.3750000), wk =   0.0312500
        k(   32) = (  -0.3750000   1.1250000  -0.3750000), wk =   0.0000000
        k(   33) = (  -0.3750000  -0.6250000  -0.3750000), wk =   0.0312500
        k(   34) = (  -0.3750000  -0.1250000  -0.3750000), wk =   0.0000000
        k(   35) = (  -0.3750000   0.1250000  -0.1250000), wk =   0.0625000
        k(   36) = (  -0.3750000   0.6250000  -0.1250000), wk =   0.0000000
        k(   37) = (  -0.1250000   0.3750000  -0.1250000), wk =   0.0312500
        k(   38) = (  -0.1250000   0.8750000  -0.1250000), wk =   0.0000000
        k(   39) = (  -0.1250000  -0.3750000  -0.1250000), wk =   0.0312500
        k(   40) = (  -0.1250000   0.1250000  -0.1250000), wk =   0.0000000
        k(   41) = (  -0.1250000  -0.6250000   0.1250000), wk =   0.0312500
        k(   42) = (  -0.1250000  -0.1250000   0.1250000), wk =   0.0000000
        k(   43) = (   0.6250000  -0.1250000  -0.1250000), wk =   0.0625000
        k(   44) = (   0.6250000   0.3750000  -0.1250000), wk =   0.0000000
        k(   45) = (   0.6250000   0.1250000   0.1250000), wk =   0.0625000
        k(   46) = (   0.6250000   0.6250000   0.1250000), wk =   0.0000000
        k(   47) = (  -0.8750000   0.1250000  -0.6250000), wk =   0.0625000
        k(   48) = (  -0.8750000   0.6250000  -0.6250000), wk =   0.0000000
        k(   49) = (  -0.1250000   0.6250000  -0.8750000), wk =   0.0625000
        k(   50) = (  -0.1250000   1.1250000  -0.8750000), wk =   0.0000000
        k(   51) = (  -0.1250000   0.8750000  -0.6250000), wk =   0.0625000
        k(   52) = (  -0.1250000   1.3750000  -0.6250000), wk =   0.0000000
        k(   53) = (  -0.1250000  -0.8750000  -0.6250000), wk =   0.0625000
        k(   54) = (  -0.1250000  -0.3750000  -0.6250000), wk =   0.0000000
        k(   55) = (   0.8750000  -0.6250000   0.1250000), wk =   0.0625000
        k(   56) = (   0.8750000  -0.1250000   0.1250000), wk =   0.0000000
        k(   57) = (  -0.6250000  -0.1250000  -0.3750000), wk =   0.0625000
        k(   58) = (  -0.6250000   0.3750000  -0.3750000), wk =   0.0000000
        k(   59) = (   0.1250000   0.3750000  -0.6250000), wk =   0.0625000
        k(   60) = (   0.1250000   0.8750000  -0.6250000), wk =   0.0000000
        k(   61) = (   0.1250000   0.6250000  -0.3750000), wk =   0.0625000
        k(   62) = (   0.1250000   1.1250000  -0.3750000), wk =   0.0000000
        k(   63) = (   0.1250000  -0.6250000  -0.3750000), wk =   0.0625000
        k(   64) = (   0.1250000  -0.1250000  -0.3750000), wk =   0.0000000
        k(   65) = (   0.6250000  -0.3750000  -0.1250000), wk =   0.0625000
        k(   66) = (   0.6250000   0.1250000  -0.1250000), wk =   0.0000000
        k(   67) = (  -0.1250000   0.8750000   0.1250000), wk =   0.0312500
        k(   68) = (  -0.1250000   1.3750000   0.1250000), wk =   0.0000000
        k(   69) = (  -0.8750000  -0.1250000  -0.1250000), wk =   0.0625000
        k(   70) = (  -0.8750000   0.3750000  -0.1250000), wk =   0.0000000
        k(   71) = (  -0.8750000   0.1250000   0.1250000), wk =   0.0625000
        k(   72) = (  -0.8750000   0.6250000   0.1250000), wk =   0.0000000
        k(   73) = (  -0.3750000  -0.3750000   0.3750000), wk =   0.0312500
        k(   74) = (  -0.3750000   0.1250000   0.3750000), wk =   0.0000000
        k(   75) = (  -1.1250000   0.3750000  -0.3750000), wk =   0.0625000
        k(   76) = (  -1.1250000   0.8750000  -0.3750000), wk =   0.0000000
        k(   77) = (  -0.3750000   1.1250000  -0.3750000), wk =   0.0312500
        k(   78) = (  -0.3750000   1.6250000  -0.3750000), wk =   0.0000000
        k(   79) = (  -0.3750000  -1.1250000  -0.3750000), wk =   0.0312500
        k(   80) = (  -0.3750000  -0.6250000  -0.3750000), wk =   0.0000000

     Dense  grid:    16889 G-vectors     FFT dimensions: (  36,  36,  36)

     Smooth grid:     5985 G-vectors     FFT dimensions: (  25,  25,  25)

     Estimated max dynamical RAM per process >       1.50MB

     Estimated total allocated dynamical RAM >       6.02MB

     The potential is recalculated from file :
     ./_ph0/silicon.10.282.save/charge-density.dat

     Starting wfc are    8 atomic wfcs

     Band Structure Calculation
     Davidson diagonalization with overlap

     ethr =  1.25E-10,  avg # of iterations = 12.2

     total cpu time spent up to now is        3.5 secs

     End of band structure calculation

          k =-0.1250 0.1250 0.1250 (   746 PWs)   bands (ev):

    -5.5827   4.5376   5.8467   5.8467

          k =-0.1250 0.6250 0.1250 (   757 PWs)   bands (ev):

    -4.0034   1.1999   3.4796   3.9387

          k =-0.3750 0.3750-0.1250 (   757 PWs)   bands (ev):

    -4.5424   1.5209   3.8361   5.3629

          k =-0.3750 0.8750-0.1250 (   749 PWs)   bands (ev):

    -2.3383  -0.7828   2.1008   3.1938

          k = 0.3750-0.3750 0.6250 (   755 PWs)   bands (ev):

    -3.3831  -0.5885   3.8638   4.5798

          k = 0.3750 0.1250 0.6250 (   756 PWs)   bands (ev):

    -3.5807   0.3075   2.8319   4.2165

          k = 0.1250-0.1250 0.3750 (   757 PWs)   bands (ev):

    -5.0481   2.9149   4.8237   4.8963

          k = 0.1250 0.3750 0.3750 (   757 PWs)   bands (ev):

    -4.5424   1.5209   3.8361   5.3629

          k =-0.1250 0.6250 0.1250 (   757 PWs)   bands (ev):

    -4.0034   1.1999   3.4796   3.9387

          k =-0.1250 1.1250 0.1250 (   757 PWs)   bands (ev):

    -2.5118  -0.6823   2.7208   3.4664

          k = 0.6250-0.1250 0.8750 (   749 PWs)   bands (ev):

    -2.3383  -0.7828   2.1008   3.1938

          k = 0.6250 0.3750 0.8750 (   756 PWs)   bands (ev):

    -3.5807   0.3075   2.8319   4.2165

          k = 0.3750 0.1250 0.6250 (   756 PWs)   bands (ev):

    -3.5807   0.3075   2.8319   4.2165

          k = 0.3750 0.6250 0.6250 (   755 PWs)   bands (ev):

    -3.3831  -0.5885   3.8638   4.5798

          k =-0.1250-0.8750 0.1250 (   757 PWs)   bands (ev):

    -2.5118  -0.6823   2.7208   3.4664

          k =-0.1250-0.3750 0.1250 (   757 PWs)   bands (ev):

    -5.0481   2.9149   4.8237   4.8963

          k =-0.3750 0.3750 0.3750 (   763 PWs)   bands (ev):

    -4.1022   0.2087   5.0518   5.0518

          k =-0.3750 0.8750 0.3750 (   757 PWs)   bands (ev):

    -2.8813  -0.4882   2.1655   4.2578

          k = 0.3750-0.3750 1.1250 (   757 PWs)   bands (ev):

    -2.8813  -0.4882   2.1655   4.2578

          k = 0.3750 0.1250 1.1250 (   749 PWs)   bands (ev):

    -2.3383  -0.7828   2.1008   3.1938

          k =-0.1250-0.1250 0.1250 (   746 PWs)   bands (ev):

    -5.5827   4.5376   5.8467   5.8467

          k =-0.1250 0.3750 0.1250 (   757 PWs)   bands (ev):

    -5.0481   2.9149   4.8237   4.8963

          k = 0.1250-0.3750 0.3750 (   757 PWs)   bands (ev):

    -4.5424   1.5209   3.8361   5.3629

          k = 0.1250 0.1250 0.3750 (   757 PWs)   bands (ev):

    -5.0481   2.9149   4.8237   4.8963

          k = 0.3750-0.1250 0.3750 (   757 PWs)   bands (ev):

    -4.5424   1.5209   3.8361   5.3629

          k = 0.3750 0.3750 0.3750 (   763 PWs)   bands (ev):

    -4.1022   0.2087   5.0518   5.0518

          k = 0.3750 0.1250 0.3750 (   757 PWs)   bands (ev):

    -4.5424   1.5209   3.8361   5.3629

          k = 0.3750 0.6250 0.3750 (   755 PWs)   bands (ev):

    -3.3831  -0.5885   3.8638   4.5798

          k =-0.6250 0.3750-0.3750 (   755 PWs)   bands (ev):

    -3.3831  -0.5885   3.8638   4.5798

          k =-0.6250 0.8750-0.3750 (   756 PWs)   bands (ev):

    -3.5807   0.3075   2.8319   4.2165

          k =-0.3750 0.6250-0.3750 (   755 PWs)   bands (ev):

    -3.3831  -0.5885   3.8638   4.5798

          k =-0.3750 1.1250-0.3750 (   757 PWs)   bands (ev):

    -2.8813  -0.4882   2.1655   4.2578

          k =-0.3750-0.6250-0.3750 (   755 PWs)   bands (ev):

    -3.3831  -0.5885   3.8638   4.5798

          k =-0.3750-0.1250-0.3750 (   757 PWs)   bands (ev):

    -4.5424   1.5209   3.8361   5.3629

          k =-0.3750 0.1250-0.1250 (   757 PWs)   bands (ev):

    -5.0481   2.9149   4.8237   4.8963

          k =-0.3750 0.6250-0.1250 (   756 PWs)   bands (ev):

    -3.5807   0.3075   2.8319   4.2165

          k =-0.1250 0.3750-0.1250 (   757 PWs)   bands (ev):

    -5.0481   2.9149   4.8237   4.8963

          k =-0.1250 0.8750-0.1250 (   757 PWs)   bands (ev):

    -2.5118  -0.6823   2.7208   3.4664

          k =-0.1250-0.3750-0.1250 (   757 PWs)   bands (ev):

    -5.0481   2.9149   4.8237   4.8963

          k =-0.1250 0.1250-0.1250 (   746 PWs)   bands (ev):

    -5.5827   4.5376   5.8467   5.8467

          k =-0.1250-0.6250 0.1250 (   757 PWs)   bands (ev):

    -4.0034   1.1999   3.4796   3.9387

          k =-0.1250-0.1250 0.1250 (   746 PWs)   bands (ev):

    -5.5827   4.5376   5.8467   5.8467

          k = 0.6250-0.1250-0.1250 (   757 PWs)   bands (ev):

    -4.0034   1.1999   3.4796   3.9387

          k = 0.6250 0.3750-0.1250 (   756 PWs)   bands (ev):

    -3.5807   0.3075   2.8319   4.2165

          k = 0.6250 0.1250 0.1250 (   757 PWs)   bands (ev):

    -4.0034   1.1999   3.4796   3.9387

          k = 0.6250 0.6250 0.1250 (   757 PWs)   bands (ev):

    -2.8813  -0.4882   2.1655   4.2578

          k =-0.8750 0.1250-0.6250 (   749 PWs)   bands (ev):

    -2.3383  -0.7828   2.1008   3.1938

          k =-0.8750 0.6250-0.6250 (   757 PWs)   bands (ev):

    -4.5424   1.5209   3.8361   5.3629

          k =-0.1250 0.6250-0.8750 (   749 PWs)   bands (ev):

    -2.3383  -0.7828   2.1008   3.1938

          k =-0.1250 1.1250-0.8750 (   757 PWs)   bands (ev):

    -2.5118  -0.6823   2.7208   3.4664

          k =-0.1250 0.8750-0.6250 (   749 PWs)   bands (ev):

    -2.3383  -0.7828   2.1008   3.1938

          k =-0.1250 1.3750-0.6250 (   757 PWs)   bands (ev):

    -2.8813  -0.4882   2.1655   4.2578

          k =-0.1250-0.8750-0.6250 (   749 PWs)   bands (ev):

    -2.3383  -0.7828   2.1008   3.1938

          k =-0.1250-0.3750-0.6250 (   756 PWs)   bands (ev):

    -3.5807   0.3075   2.8319   4.2165

          k = 0.8750-0.6250 0.1250 (   749 PWs)   bands (ev):

    -2.3383  -0.7828   2.1008   3.1938

          k = 0.8750-0.1250 0.1250 (   757 PWs)   bands (ev):

    -2.5118  -0.6823   2.7208   3.4664

          k =-0.6250-0.1250-0.3750 (   756 PWs)   bands (ev):

    -3.5807   0.3075   2.8319   4.2165

          k =-0.6250 0.3750-0.3750 (   755 PWs)   bands (ev):

    -3.3831  -0.5885   3.8638   4.5798

          k = 0.1250 0.3750-0.6250 (   756 PWs)   bands (ev):

    -3.5807   0.3075   2.8319   4.2165

          k = 0.1250 0.8750-0.6250 (   749 PWs)   bands (ev):

    -2.3383  -0.7828   2.1008   3.1938

          k = 0.1250 0.6250-0.3750 (   756 PWs)   bands (ev):

    -3.5807   0.3075   2.8319   4.2165

          k = 0.1250 1.1250-0.3750 (   749 PWs)   bands (ev):

    -2.3383  -0.7828   2.1008   3.1938

          k = 0.1250-0.6250-0.3750 (   756 PWs)   bands (ev):

    -3.5807   0.3075   2.8319   4.2165

          k = 0.1250-0.1250-0.3750 (   757 PWs)   bands (ev):

    -5.0481   2.9149   4.8237   4.8963

          k = 0.6250-0.3750-0.1250 (   756 PWs)   bands (ev):

    -3.5807   0.3075   2.8319   4.2165

          k = 0.6250 0.1250-0.1250 (   757 PWs)   bands (ev):

    -4.0034   1.1999   3.4796   3.9387

          k =-0.1250 0.8750 0.1250 (   757 PWs)   bands (ev):

    -2.5118  -0.6823   2.7208   3.4664

          k =-0.1250 1.3750 0.1250 (   757 PWs)   bands (ev):

    -4.0034   1.1999   3.4796   3.9387

          k =-0.8750-0.1250-0.1250 (   757 PWs)   bands (ev):

    -2.5118  -0.6823   2.7208   3.4664

          k =-0.8750 0.3750-0.1250 (   749 PWs)   bands (ev):

    -2.3383  -0.7828   2.1008   3.1938

          k =-0.8750 0.1250 0.1250 (   757 PWs)   bands (ev):

    -2.5118  -0.6823   2.7208   3.4664

          k =-0.8750 0.6250 0.1250 (   749 PWs)   bands (ev):

    -2.3383  -0.7828   2.1008   3.1938

          k =-0.3750-0.3750 0.3750 (   763 PWs)   bands (ev):

    -4.1022   0.2087   5.0518   5.0518

          k =-0.3750 0.1250 0.3750 (   757 PWs)   bands (ev):

    -4.5424   1.5209   3.8361   5.3629

          k =-1.1250 0.3750-0.3750 (   757 PWs)   bands (ev):

    -2.8813  -0.4882   2.1655   4.2578

          k =-1.1250 0.8750-0.3750 (   757 PWs)   bands (ev):

    -4.0034   1.1999   3.4796   3.9387

          k =-0.3750 1.1250-0.3750 (   757 PWs)   bands (ev):

    -2.8813  -0.4882   2.1655   4.2578

          k =-0.3750 1.6250-0.3750 (   763 PWs)   bands (ev):

    -4.1022   0.2087   5.0518   5.0518

          k =-0.3750-1.1250-0.3750 (   757 PWs)   bands (ev):

    -2.8813  -0.4882   2.1655   4.2578

          k =-0.3750-0.6250-0.3750 (   755 PWs)   bands (ev):

    -3.3831  -0.5885   3.8638   4.5798

     highest occupied level (ev):     5.8467

     Writing output data file silicon.10.282.save

                                                                                

     bravais-lattice index     =            2
     lattice parameter (alat)  =      10.2820  a.u.
     unit-cell volume          =     271.7520 (a.u.)^3
     number of atoms/cell      =            2
     number of atomic types    =            1
     kinetic-energy cut-off    =      30.0000  Ry
     charge density cut-off    =     240.0000  Ry
     convergence threshold     =      1.0E-12
     beta                      =       0.7000
     number of iterations used =            4
     Exchange-correlation      = SLA  PW   PBE  PBE ( 1  4  3  4 0 0)


     celldm(1)=   10.28200  celldm(2)=    0.00000  celldm(3)=    0.00000
     celldm(4)=    0.00000  celldm(5)=    0.00000  celldm(6)=    0.00000

     crystal axes: (cart. coord. in units of alat)
               a(1) = ( -0.5000  0.0000  0.5000 )  
               a(2) = (  0.0000  0.5000  0.5000 )  
               a(3) = ( -0.5000  0.5000  0.0000 )  

     reciprocal axes: (cart. coord. in units 2 pi/alat)
               b(1) = ( -1.0000 -1.0000  1.0000 )  
               b(2) = (  1.0000  1.0000  1.0000 )  
               b(3) = ( -1.0000  1.0000 -1.0000 )  


     Atoms inside the unit cell: 

     Cartesian axes

     site n.  atom      mass           positions (alat units)
        1     Si  28.0860   tau(    1) = (    0.00000    0.00000    0.00000  )
        2     Si  28.0860   tau(    2) = (    0.25000    0.25000    0.25000  )

     Computing dynamical matrix for 
                    q = (   0.0000000   0.5000000   0.0000000 )

      8 Sym.Ops. (no q -> -q+G )


     G cutoff =  642.6976  (   4224 G-vectors)     FFT grid: ( 36, 36, 36)
     G cutoff =  321.3488  (   1496 G-vectors)  smooth grid: ( 25, 25, 25)
     number of k points=    80

     PseudoPot. # 1 for Si read from file:
     /home/s1333534/quantum_espresso/qe-6.1/pseudo/si_pbe_v1.uspp.F.UPF.txt
     MD5 check sum: a056efeee980c13900f22a371efd63c1
     Pseudo is Ultrasoft + core correction, Zval =  4.0
     Generated by new atomic code, or converted to UPF format
     Using radial grid of  899 points,  6 beta functions with: 
                l(1) =   0
                l(2) =   0
                l(3) =   1
                l(4) =   1
                l(5) =   2
                l(6) =   2
     Q(r) pseudized with  8 coefficients,  rinner =    0.900   0.900   0.900
                                                       0.900   0.900

     Mode symmetry, C_4v (4mm)  point group:


     Atomic displacements:
     There are   4 irreducible representations

     Representation     1      1 modes -A_1  G_1 D_1  To be done

     Representation     2      1 modes -B_2  G_4 D_2'  To be done

     Representation     3      2 modes -E    G_5 D_5  To be done

     Representation     4      2 modes -E    G_5 D_5  To be done



     Alpha used in Ewald sum =   2.5000
     PHONON       :    37.01s CPU        47.60s WALL



     Representation #  1 mode #   1

     Self-consistent Calculation

      iter #   1 total cpu time :    48.0 secs   av.it.:   6.2
      thresh= 1.000E-02 alpha_mix =  0.700 |ddv_scf|^2 =  5.199E-04

      iter #   2 total cpu time :    48.5 secs   av.it.:   9.2
      thresh= 2.280E-03 alpha_mix =  0.700 |ddv_scf|^2 =  6.854E-03

      iter #   3 total cpu time :    49.0 secs   av.it.:   7.3
      thresh= 8.279E-03 alpha_mix =  0.700 |ddv_scf|^2 =  1.055E-08

      iter #   4 total cpu time :    49.4 secs   av.it.:  10.1
      thresh= 1.027E-05 alpha_mix =  0.700 |ddv_scf|^2 =  9.757E-10

      iter #   5 total cpu time :    49.9 secs   av.it.:   9.6
      thresh= 3.124E-06 alpha_mix =  0.700 |ddv_scf|^2 =  1.173E-10

      iter #   6 total cpu time :    50.3 secs   av.it.:   9.3
      thresh= 1.083E-06 alpha_mix =  0.700 |ddv_scf|^2 =  3.529E-13

     End of self-consistent calculation

     Convergence has been achieved 


     Representation #  2 mode #   2

     Self-consistent Calculation

      iter #   1 total cpu time :    50.7 secs   av.it.:   5.1
      thresh= 1.000E-02 alpha_mix =  0.700 |ddv_scf|^2 =  8.151E-07

      iter #   2 total cpu time :    51.2 secs   av.it.:  10.4
      thresh= 9.028E-05 alpha_mix =  0.700 |ddv_scf|^2 =  2.182E-07

      iter #   3 total cpu time :    51.7 secs   av.it.:   9.9
      thresh= 4.671E-05 alpha_mix =  0.700 |ddv_scf|^2 =  2.205E-09

      iter #   4 total cpu time :    52.1 secs   av.it.:  10.1
      thresh= 4.696E-06 alpha_mix =  0.700 |ddv_scf|^2 =  8.367E-11

      iter #   5 total cpu time :    52.6 secs   av.it.:  10.3
      thresh= 9.147E-07 alpha_mix =  0.700 |ddv_scf|^2 =  5.125E-13

     End of self-consistent calculation

     Convergence has been achieved 


     Representation #  3 modes #   3  4

     Self-consistent Calculation

      iter #   1 total cpu time :    53.3 secs   av.it.:   5.2
      thresh= 1.000E-02 alpha_mix =  0.700 |ddv_scf|^2 =  1.448E-07

      iter #   2 total cpu time :    54.3 secs   av.it.:  11.5
      thresh= 3.805E-05 alpha_mix =  0.700 |ddv_scf|^2 =  1.993E-08

      iter #   3 total cpu time :    55.2 secs   av.it.:  11.1
      thresh= 1.412E-05 alpha_mix =  0.700 |ddv_scf|^2 =  3.356E-10

      iter #   4 total cpu time :    56.0 secs   av.it.:  10.7
      thresh= 1.832E-06 alpha_mix =  0.700 |ddv_scf|^2 =  7.759E-13

     End of self-consistent calculation

     Convergence has been achieved 


     Representation #  4 modes #   5  6

     Self-consistent Calculation

      iter #   1 total cpu time :    56.7 secs   av.it.:   5.3
      thresh= 1.000E-02 alpha_mix =  0.700 |ddv_scf|^2 =  1.327E-07

      iter #   2 total cpu time :    57.6 secs   av.it.:  11.4
      thresh= 3.643E-05 alpha_mix =  0.700 |ddv_scf|^2 =  1.778E-08

      iter #   3 total cpu time :    58.5 secs   av.it.:  11.2
      thresh= 1.333E-05 alpha_mix =  0.700 |ddv_scf|^2 =  3.442E-10

      iter #   4 total cpu time :    59.4 secs   av.it.:  11.0
      thresh= 1.855E-06 alpha_mix =  0.700 |ddv_scf|^2 =  8.399E-13

     End of self-consistent calculation

     Convergence has been achieved 

     Number of q in the star =    6
     List of q in the star:
          1   0.000000000   0.500000000   0.000000000
          2   0.000000000  -0.500000000   0.000000000
          3   0.500000000   0.000000000   0.000000000
          4   0.000000000   0.000000000   0.500000000
          5   0.000000000   0.000000000  -0.500000000
          6  -0.500000000   0.000000000   0.000000000

     Diagonalizing the dynamical matrix

     q = (    0.000000000   0.500000000   0.000000000 ) 

 **************************************************************************
     freq (    1) =       3.734635 [THz] =     124.574007 [cm-1]
     freq (    2) =       3.734635 [THz] =     124.574007 [cm-1]
     freq (    3) =       7.172650 [THz] =     239.253850 [cm-1]
     freq (    4) =      14.086888 [THz] =     469.888021 [cm-1]
     freq (    5) =      14.086888 [THz] =     469.888021 [cm-1]
     freq (    6) =      14.669896 [THz] =     489.335068 [cm-1]
 **************************************************************************

     Mode symmetry, C_4v (4mm)  point group:

     freq (  1 -  2) =        124.6  [cm-1]   --> E    G_5 D_5       
     freq (  3 -  3) =        239.3  [cm-1]   --> A_1  G_1 D_1       
     freq (  4 -  5) =        469.9  [cm-1]   --> E    G_5 D_5       
     freq (  6 -  6) =        489.3  [cm-1]   --> B_2  G_4 D_2'      

     Calculation of q =    0.7500000  -0.2500000   0.7500000

   Info: using nr1, nr2, nr3 values from input

   Info: using nr1, nr2, nr3 values from input

     Parallelization info
     --------------------
     sticks:   dense  smooth     PW     G-vecs:    dense   smooth      PW
     Min         214     108     40                 4221     1495     362
     Max         215     109     41                 4224     1498     366
     Sum         859     433    163                16889     5985    1459



     bravais-lattice index     =            2
     lattice parameter (alat)  =      10.2820  a.u.
     unit-cell volume          =     271.7520 (a.u.)^3
     number of atoms/cell      =            2
     number of atomic types    =            1
     number of electrons       =         8.00
     number of Kohn-Sham states=            4
     kinetic-energy cutoff     =      30.0000  Ry
     charge density cutoff     =     240.0000  Ry
     Exchange-correlation      = SLA  PW   PBE  PBE ( 1  4  3  4 0 0)

     celldm(1)=  10.282000  celldm(2)=   0.000000  celldm(3)=   0.000000
     celldm(4)=   0.000000  celldm(5)=   0.000000  celldm(6)=   0.000000

     crystal axes: (cart. coord. in units of alat)
               a(1) = (  -0.500000   0.000000   0.500000 )  
               a(2) = (   0.000000   0.500000   0.500000 )  
               a(3) = (  -0.500000   0.500000   0.000000 )  

     reciprocal axes: (cart. coord. in units 2 pi/alat)
               b(1) = ( -1.000000 -1.000000  1.000000 )  
               b(2) = (  1.000000  1.000000  1.000000 )  
               b(3) = ( -1.000000  1.000000 -1.000000 )  


     PseudoPot. # 1 for Si read from file:
     /home/s1333534/quantum_espresso/qe-6.1/pseudo/si_pbe_v1.uspp.F.UPF.txt
     MD5 check sum: a056efeee980c13900f22a371efd63c1
     Pseudo is Ultrasoft + core correction, Zval =  4.0
     Generated by new atomic code, or converted to UPF format
     Using radial grid of  899 points,  6 beta functions with: 
                l(1) =   0
                l(2) =   0
                l(3) =   1
                l(4) =   1
                l(5) =   2
                l(6) =   2
     Q(r) pseudized with  8 coefficients,  rinner =    0.900   0.900   0.900
                                                       0.900   0.900

     atomic species   valence    mass     pseudopotential
        Si             4.00    28.08600     Si( 1.00)

     48 Sym. Ops., with inversion, found



   Cartesian axes

     site n.     atom                  positions (alat units)
         1           Si  tau(   1) = (   0.0000000   0.0000000   0.0000000  )
         2           Si  tau(   2) = (   0.2500000   0.2500000   0.2500000  )

     number of k points=   288

     Number of k-points >= 100: set verbosity='high' to print them.

     Dense  grid:    16889 G-vectors     FFT dimensions: (  36,  36,  36)

     Smooth grid:     5985 G-vectors     FFT dimensions: (  25,  25,  25)

     Estimated max dynamical RAM per process >       1.50MB

     Estimated total allocated dynamical RAM >       6.02MB

     The potential is recalculated from file :
     ./_ph0/silicon.10.282.save/charge-density.dat

     Starting wfc are    8 atomic wfcs

     Band Structure Calculation
     Davidson diagonalization with overlap

     ethr =  1.25E-10,  avg # of iterations = 12.1

     total cpu time spent up to now is        6.6 secs

     End of band structure calculation

     Number of k-points >= 100: set verbosity='high' to print the bands.

     highest occupied level (ev):     5.8467

     Writing output data file silicon.10.282.save

                                                                                

     bravais-lattice index     =            2
     lattice parameter (alat)  =      10.2820  a.u.
     unit-cell volume          =     271.7520 (a.u.)^3
     number of atoms/cell      =            2
     number of atomic types    =            1
     kinetic-energy cut-off    =      30.0000  Ry
     charge density cut-off    =     240.0000  Ry
     convergence threshold     =      1.0E-12
     beta                      =       0.7000
     number of iterations used =            4
     Exchange-correlation      = SLA  PW   PBE  PBE ( 1  4  3  4 0 0)


     celldm(1)=   10.28200  celldm(2)=    0.00000  celldm(3)=    0.00000
     celldm(4)=    0.00000  celldm(5)=    0.00000  celldm(6)=    0.00000

     crystal axes: (cart. coord. in units of alat)
               a(1) = ( -0.5000  0.0000  0.5000 )  
               a(2) = (  0.0000  0.5000  0.5000 )  
               a(3) = ( -0.5000  0.5000  0.0000 )  

     reciprocal axes: (cart. coord. in units 2 pi/alat)
               b(1) = ( -1.0000 -1.0000  1.0000 )  
               b(2) = (  1.0000  1.0000  1.0000 )  
               b(3) = ( -1.0000  1.0000 -1.0000 )  


     Atoms inside the unit cell: 

     Cartesian axes

     site n.  atom      mass           positions (alat units)
        1     Si  28.0860   tau(    1) = (    0.00000    0.00000    0.00000  )
        2     Si  28.0860   tau(    2) = (    0.25000    0.25000    0.25000  )

     Computing dynamical matrix for 
                    q = (   0.7500000  -0.2500000   0.7500000 )

      2 Sym.Ops. (no q -> -q+G )


     G cutoff =  642.6976  (   4224 G-vectors)     FFT grid: ( 36, 36, 36)
     G cutoff =  321.3488  (   1497 G-vectors)  smooth grid: ( 25, 25, 25)
     number of k points=   288

     PseudoPot. # 1 for Si read from file:
     /home/s1333534/quantum_espresso/qe-6.1/pseudo/si_pbe_v1.uspp.F.UPF.txt
     MD5 check sum: a056efeee980c13900f22a371efd63c1
     Pseudo is Ultrasoft + core correction, Zval =  4.0
     Generated by new atomic code, or converted to UPF format
     Using radial grid of  899 points,  6 beta functions with: 
                l(1) =   0
                l(2) =   0
                l(3) =   1
                l(4) =   1
                l(5) =   2
                l(6) =   2
     Q(r) pseudized with  8 coefficients,  rinner =    0.900   0.900   0.900
                                                       0.900   0.900

     Mode symmetry, C_s (m)     point group:


     Atomic displacements:
     There are   6 irreducible representations

     Representation     1      1 modes -A'  To be done

     Representation     2      1 modes -A'  To be done

     Representation     3      1 modes -A'  To be done

     Representation     4      1 modes -A'  To be done

     Representation     5      1 modes -A''  To be done

     Representation     6      1 modes -A''  To be done



     Alpha used in Ewald sum =   2.5000
     PHONON       :  0m50.85s CPU     1m 4.56s WALL



     Representation #  1 mode #   1

     Self-consistent Calculation

      iter #   1 total cpu time :    65.5 secs   av.it.:   5.7
      thresh= 1.000E-02 alpha_mix =  0.700 |ddv_scf|^2 =  1.059E-05

      iter #   2 total cpu time :    66.8 secs   av.it.:  10.6
      thresh= 3.254E-04 alpha_mix =  0.700 |ddv_scf|^2 =  2.806E-05

      iter #   3 total cpu time :    68.0 secs   av.it.:   9.2
      thresh= 5.298E-04 alpha_mix =  0.700 |ddv_scf|^2 =  1.887E-07

      iter #   4 total cpu time :    69.3 secs   av.it.:   9.9
      thresh= 4.344E-05 alpha_mix =  0.700 |ddv_scf|^2 =  3.669E-09

      iter #   5 total cpu time :    70.6 secs   av.it.:  10.4
      thresh= 6.057E-06 alpha_mix =  0.700 |ddv_scf|^2 =  6.397E-10

      iter #   6 total cpu time :    71.9 secs   av.it.:  10.3
      thresh= 2.529E-06 alpha_mix =  0.700 |ddv_scf|^2 =  9.166E-12

      iter #   7 total cpu time :    73.2 secs   av.it.:  10.6
      thresh= 3.028E-07 alpha_mix =  0.700 |ddv_scf|^2 =  3.381E-13

     End of self-consistent calculation

     Convergence has been achieved 


     Representation #  2 mode #   2

     Self-consistent Calculation

      iter #   1 total cpu time :    74.2 secs   av.it.:   5.8
      thresh= 1.000E-02 alpha_mix =  0.700 |ddv_scf|^2 =  1.900E-05

      iter #   2 total cpu time :    75.6 secs   av.it.:  10.4
      thresh= 4.359E-04 alpha_mix =  0.700 |ddv_scf|^2 =  5.480E-05

      iter #   3 total cpu time :    76.8 secs   av.it.:   9.0
      thresh= 7.403E-04 alpha_mix =  0.700 |ddv_scf|^2 =  1.252E-07

      iter #   4 total cpu time :    78.0 secs   av.it.:  10.2
      thresh= 3.539E-05 alpha_mix =  0.700 |ddv_scf|^2 =  4.141E-09

      iter #   5 total cpu time :    79.4 secs   av.it.:  10.4
      thresh= 6.435E-06 alpha_mix =  0.700 |ddv_scf|^2 =  8.454E-10

      iter #   6 total cpu time :    80.8 secs   av.it.:  10.3
      thresh= 2.908E-06 alpha_mix =  0.700 |ddv_scf|^2 =  8.618E-12

      iter #   7 total cpu time :    82.1 secs   av.it.:  10.6
      thresh= 2.936E-07 alpha_mix =  0.700 |ddv_scf|^2 =  2.974E-13

     End of self-consistent calculation

     Convergence has been achieved 


     Representation #  3 mode #   3

     Self-consistent Calculation

      iter #   1 total cpu time :    83.4 secs   av.it.:   5.7
      thresh= 1.000E-02 alpha_mix =  0.700 |ddv_scf|^2 =  1.490E-05

      iter #   2 total cpu time :    84.7 secs   av.it.:  10.4
      thresh= 3.860E-04 alpha_mix =  0.700 |ddv_scf|^2 =  4.040E-05

      iter #   3 total cpu time :    86.0 secs   av.it.:   9.0
      thresh= 6.356E-04 alpha_mix =  0.700 |ddv_scf|^2 =  2.191E-07

      iter #   4 total cpu time :    87.3 secs   av.it.:   9.9
      thresh= 4.681E-05 alpha_mix =  0.700 |ddv_scf|^2 =  4.222E-09

      iter #   5 total cpu time :    88.6 secs   av.it.:  10.4
      thresh= 6.498E-06 alpha_mix =  0.700 |ddv_scf|^2 =  8.209E-10

      iter #   6 total cpu time :    89.9 secs   av.it.:  10.3
      thresh= 2.865E-06 alpha_mix =  0.700 |ddv_scf|^2 =  6.039E-12

      iter #   7 total cpu time :    91.1 secs   av.it.:  10.5
      thresh= 2.458E-07 alpha_mix =  0.700 |ddv_scf|^2 =  1.758E-13

     End of self-consistent calculation

     Convergence has been achieved 


     Representation #  4 mode #   4

     Self-consistent Calculation

      iter #   1 total cpu time :    92.2 secs   av.it.:   5.5
      thresh= 1.000E-02 alpha_mix =  0.700 |ddv_scf|^2 =  6.479E-06

      iter #   2 total cpu time :    93.5 secs   av.it.:  10.7
      thresh= 2.545E-04 alpha_mix =  0.700 |ddv_scf|^2 =  1.363E-05

      iter #   3 total cpu time :    94.7 secs   av.it.:   9.4
      thresh= 3.692E-04 alpha_mix =  0.700 |ddv_scf|^2 =  2.955E-07

      iter #   4 total cpu time :    96.0 secs   av.it.:   9.8
      thresh= 5.436E-05 alpha_mix =  0.700 |ddv_scf|^2 =  3.613E-09

      iter #   5 total cpu time :    97.3 secs   av.it.:  10.5
      thresh= 6.011E-06 alpha_mix =  0.700 |ddv_scf|^2 =  6.768E-10

      iter #   6 total cpu time :    98.9 secs   av.it.:  10.4
      thresh= 2.601E-06 alpha_mix =  0.700 |ddv_scf|^2 =  3.901E-12

      iter #   7 total cpu time :   100.3 secs   av.it.:  10.6
      thresh= 1.975E-07 alpha_mix =  0.700 |ddv_scf|^2 =  1.751E-13

     End of self-consistent calculation

     Convergence has been achieved 


     Representation #  5 mode #   5

     Self-consistent Calculation

      iter #   1 total cpu time :   101.4 secs   av.it.:   5.2
      thresh= 1.000E-02 alpha_mix =  0.700 |ddv_scf|^2 =  6.695E-07

      iter #   2 total cpu time :   102.8 secs   av.it.:  10.4
      thresh= 8.182E-05 alpha_mix =  0.700 |ddv_scf|^2 =  1.090E-07

      iter #   3 total cpu time :   104.1 secs   av.it.:  10.0
      thresh= 3.302E-05 alpha_mix =  0.700 |ddv_scf|^2 =  1.455E-09

      iter #   4 total cpu time :   105.4 secs   av.it.:   9.6
      thresh= 3.814E-06 alpha_mix =  0.700 |ddv_scf|^2 =  3.365E-12

      iter #   5 total cpu time :   106.9 secs   av.it.:  10.0
      thresh= 1.834E-07 alpha_mix =  0.700 |ddv_scf|^2 =  9.326E-14

     End of self-consistent calculation

     Convergence has been achieved 


     Representation #  6 mode #   6

     Self-consistent Calculation

      iter #   1 total cpu time :   108.0 secs   av.it.:   5.2
      thresh= 1.000E-02 alpha_mix =  0.700 |ddv_scf|^2 =  6.695E-07

      iter #   2 total cpu time :   109.2 secs   av.it.:  10.4
[...]
        k(   59) = (  -0.8750000   0.1250000  -0.1250000), wk =   0.0625000
        k(   60) = (  -1.3750000  -0.8750000  -0.1250000), wk =   0.0000000
        k(   61) = (  -1.1250000   0.3750000  -0.3750000), wk =   0.0625000
        k(   62) = (  -1.6250000  -0.6250000  -0.3750000), wk =   0.0000000
        k(   63) = (  -0.3750000   0.3750000   1.1250000), wk =   0.0625000
        k(   64) = (  -0.8750000  -0.6250000   1.1250000), wk =   0.0000000

     Dense  grid:    16889 G-vectors     FFT dimensions: (  36,  36,  36)

     Smooth grid:     5985 G-vectors     FFT dimensions: (  25,  25,  25)

     Estimated max dynamical RAM per process >       1.50MB

     Estimated total allocated dynamical RAM >       6.02MB

     The potential is recalculated from file :
     ./_ph0/silicon.10.282.save/charge-density.dat

     Starting wfc are    8 atomic wfcs

     Band Structure Calculation
     Davidson diagonalization with overlap

     ethr =  1.25E-10,  avg # of iterations = 12.1

     total cpu time spent up to now is       10.4 secs

     End of band structure calculation

          k =-0.1250 0.1250 0.1250 (   746 PWs)   bands (ev):

    -5.5827   4.5376   5.8467   5.8467

          k =-0.6250-0.8750 0.1250 (   749 PWs)   bands (ev):

    -2.3383  -0.7828   2.1008   3.1938

          k =-0.3750 0.3750-0.1250 (   757 PWs)   bands (ev):

    -4.5424   1.5209   3.8361   5.3629

          k =-0.8750-0.6250-0.1250 (   749 PWs)   bands (ev):

    -2.3383  -0.7828   2.1008   3.1938

          k = 0.3750-0.3750 0.6250 (   755 PWs)   bands (ev):

    -3.3831  -0.5885   3.8638   4.5798

          k =-0.1250-1.3750 0.6250 (   757 PWs)   bands (ev):

    -2.8813  -0.4882   2.1655   4.2578

          k = 0.1250-0.1250 0.3750 (   757 PWs)   bands (ev):

    -5.0481   2.9149   4.8237   4.8963

          k =-0.3750-1.1250 0.3750 (   757 PWs)   bands (ev):

    -2.8813  -0.4882   2.1655   4.2578

          k =-0.1250 0.6250 0.1250 (   757 PWs)   bands (ev):

    -4.0034   1.1999   3.4796   3.9387

          k =-0.6250-0.3750 0.1250 (   756 PWs)   bands (ev):

    -3.5807   0.3075   2.8319   4.2165

          k = 0.6250-0.1250 0.8750 (   749 PWs)   bands (ev):

    -2.3383  -0.7828   2.1008   3.1938

          k = 0.1250-1.1250 0.8750 (   757 PWs)   bands (ev):

    -2.5118  -0.6823   2.7208   3.4664

          k = 0.3750 0.1250 0.6250 (   756 PWs)   bands (ev):

    -3.5807   0.3075   2.8319   4.2165

          k =-0.1250-0.8750 0.6250 (   749 PWs)   bands (ev):

    -2.3383  -0.7828   2.1008   3.1938

          k =-0.1250-0.8750 0.1250 (   757 PWs)   bands (ev):

    -2.5118  -0.6823   2.7208   3.4664

          k =-0.6250-1.8750 0.1250 (   757 PWs)   bands (ev):

    -4.0034   1.1999   3.4796   3.9387

          k =-0.3750 0.3750 0.3750 (   763 PWs)   bands (ev):

    -4.1022   0.2087   5.0518   5.0518

          k =-0.8750-0.6250 0.3750 (   756 PWs)   bands (ev):

    -3.5807   0.3075   2.8319   4.2165

          k = 0.3750-0.3750 1.1250 (   757 PWs)   bands (ev):

    -2.8813  -0.4882   2.1655   4.2578

          k =-0.1250-1.3750 1.1250 (   749 PWs)   bands (ev):

    -2.3383  -0.7828   2.1008   3.1938

          k = 0.1250-0.3750 0.3750 (   757 PWs)   bands (ev):

    -4.5424   1.5209   3.8361   5.3629

          k =-0.3750-1.3750 0.3750 (   755 PWs)   bands (ev):

    -3.3831  -0.5885   3.8638   4.5798

          k = 0.3750-0.3750-0.1250 (   757 PWs)   bands (ev):

    -4.5424   1.5209   3.8361   5.3629

          k =-0.1250-1.3750-0.1250 (   757 PWs)   bands (ev):

    -4.0034   1.1999   3.4796   3.9387

          k =-0.6250 0.3750-0.3750 (   755 PWs)   bands (ev):

    -3.3831  -0.5885   3.8638   4.5798

          k =-1.1250-0.6250-0.3750 (   756 PWs)   bands (ev):

    -3.5807   0.3075   2.8319   4.2165

          k =-0.3750 0.3750 0.6250 (   755 PWs)   bands (ev):

    -3.3831  -0.5885   3.8638   4.5798

          k =-0.8750-0.6250 0.6250 (   757 PWs)   bands (ev):

    -4.5424   1.5209   3.8361   5.3629

          k =-0.3750 0.1250-0.1250 (   757 PWs)   bands (ev):

    -5.0481   2.9149   4.8237   4.8963

          k =-0.8750-0.8750-0.1250 (   757 PWs)   bands (ev):

    -2.5118  -0.6823   2.7208   3.4664

          k =-0.1250 0.1250 0.3750 (   757 PWs)   bands (ev):

    -5.0481   2.9149   4.8237   4.8963

          k =-0.6250-0.8750 0.3750 (   756 PWs)   bands (ev):

    -3.5807   0.3075   2.8319   4.2165

          k = 0.1250 0.6250-0.1250 (   757 PWs)   bands (ev):

    -4.0034   1.1999   3.4796   3.9387

          k =-0.3750-0.3750-0.1250 (   757 PWs)   bands (ev):

    -4.5424   1.5209   3.8361   5.3629

          k = 0.6250 0.1250-0.1250 (   757 PWs)   bands (ev):

    -4.0034   1.1999   3.4796   3.9387

          k = 0.1250-0.8750-0.1250 (   757 PWs)   bands (ev):

    -2.5118  -0.6823   2.7208   3.4664

          k =-0.8750 0.1250-0.6250 (   749 PWs)   bands (ev):

    -2.3383  -0.7828   2.1008   3.1938

          k =-1.3750-0.8750-0.6250 (   757 PWs)   bands (ev):

    -4.5424   1.5209   3.8361   5.3629

          k = 0.8750-0.1250 0.6250 (   749 PWs)   bands (ev):

    -2.3383  -0.7828   2.1008   3.1938

          k = 0.3750-1.1250 0.6250 (   756 PWs)   bands (ev):

    -3.5807   0.3075   2.8319   4.2165

          k =-0.6250 0.1250 0.8750 (   749 PWs)   bands (ev):

    -2.3383  -0.7828   2.1008   3.1938

          k =-1.1250-0.8750 0.8750 (   746 PWs)   bands (ev):

    -5.5827   4.5376   5.8467   5.8467

          k =-0.1250 0.8750 0.6250 (   749 PWs)   bands (ev):

    -2.3383  -0.7828   2.1008   3.1938

          k =-0.6250-0.1250 0.6250 (   757 PWs)   bands (ev):

    -2.8813  -0.4882   2.1655   4.2578

          k = 0.1250 0.8750-0.6250 (   749 PWs)   bands (ev):

    -2.3383  -0.7828   2.1008   3.1938

          k =-0.3750-0.1250-0.6250 (   756 PWs)   bands (ev):

    -3.5807   0.3075   2.8319   4.2165

          k =-0.6250-0.1250-0.3750 (   756 PWs)   bands (ev):

    -3.5807   0.3075   2.8319   4.2165

          k =-1.1250-1.1250-0.3750 (   757 PWs)   bands (ev):

    -4.0034   1.1999   3.4796   3.9387

          k = 0.6250 0.1250 0.3750 (   756 PWs)   bands (ev):

    -3.5807   0.3075   2.8319   4.2165

          k = 0.1250-0.8750 0.3750 (   749 PWs)   bands (ev):

    -2.3383  -0.7828   2.1008   3.1938

          k =-0.3750-0.1250 0.6250 (   756 PWs)   bands (ev):

    -3.5807   0.3075   2.8319   4.2165

          k =-0.8750-1.1250 0.6250 (   757 PWs)   bands (ev):

    -5.0481   2.9149   4.8237   4.8963

          k = 0.1250 0.6250 0.3750 (   756 PWs)   bands (ev):

    -3.5807   0.3075   2.8319   4.2165

          k =-0.3750-0.3750 0.3750 (   763 PWs)   bands (ev):

    -4.1022   0.2087   5.0518   5.0518

          k =-0.1250 0.6250-0.3750 (   756 PWs)   bands (ev):

    -3.5807   0.3075   2.8319   4.2165

          k =-0.6250-0.3750-0.3750 (   755 PWs)   bands (ev):

    -3.3831  -0.5885   3.8638   4.5798

          k = 0.1250-0.8750-0.1250 (   757 PWs)   bands (ev):

    -2.5118  -0.6823   2.7208   3.4664

          k =-0.3750-1.8750-0.1250 (   757 PWs)   bands (ev):

    -5.0481   2.9149   4.8237   4.8963

          k =-0.8750 0.1250-0.1250 (   757 PWs)   bands (ev):

    -2.5118  -0.6823   2.7208   3.4664

          k =-1.3750-0.8750-0.1250 (   749 PWs)   bands (ev):

    -2.3383  -0.7828   2.1008   3.1938

          k =-1.1250 0.3750-0.3750 (   757 PWs)   bands (ev):

    -2.8813  -0.4882   2.1655   4.2578

          k =-1.6250-0.6250-0.3750 (   755 PWs)   bands (ev):

    -3.3831  -0.5885   3.8638   4.5798

          k =-0.3750 0.3750 1.1250 (   757 PWs)   bands (ev):

    -2.8813  -0.4882   2.1655   4.2578

          k =-0.8750-0.6250 1.1250 (   757 PWs)   bands (ev):

    -5.0481   2.9149   4.8237   4.8963

     highest occupied level (ev):     5.8467

     Writing output data file silicon.10.282.save

                                                                                

     bravais-lattice index     =            2
     lattice parameter (alat)  =      10.2820  a.u.
     unit-cell volume          =     271.7520 (a.u.)^3
     number of atoms/cell      =            2
     number of atomic types    =            1
     kinetic-energy cut-off    =      30.0000  Ry
     charge density cut-off    =     240.0000  Ry
     convergence threshold     =      1.0E-12
     beta                      =       0.7000
     number of iterations used =            4
     Exchange-correlation      = SLA  PW   PBE  PBE ( 1  4  3  4 0 0)


     celldm(1)=   10.28200  celldm(2)=    0.00000  celldm(3)=    0.00000
     celldm(4)=    0.00000  celldm(5)=    0.00000  celldm(6)=    0.00000

     crystal axes: (cart. coord. in units of alat)
               a(1) = ( -0.5000  0.0000  0.5000 )  
               a(2) = (  0.0000  0.5000  0.5000 )  
               a(3) = ( -0.5000  0.5000  0.0000 )  

     reciprocal axes: (cart. coord. in units 2 pi/alat)
               b(1) = ( -1.0000 -1.0000  1.0000 )  
               b(2) = (  1.0000  1.0000  1.0000 )  
               b(3) = ( -1.0000  1.0000 -1.0000 )  


     Atoms inside the unit cell: 

     Cartesian axes

     site n.  atom      mass           positions (alat units)
        1     Si  28.0860   tau(    1) = (    0.00000    0.00000    0.00000  )
        2     Si  28.0860   tau(    2) = (    0.25000    0.25000    0.25000  )

     Computing dynamical matrix for 
                    q = (  -0.5000000  -1.0000000   0.0000000 )

      8 Sym.Ops. (no q -> -q+G )


     G cutoff =  642.6976  (   4224 G-vectors)     FFT grid: ( 36, 36, 36)
     G cutoff =  321.3488  (   1497 G-vectors)  smooth grid: ( 25, 25, 25)
     number of k points=    64

     PseudoPot. # 1 for Si read from file:
     /home/s1333534/quantum_espresso/qe-6.1/pseudo/si_pbe_v1.uspp.F.UPF.txt
     MD5 check sum: a056efeee980c13900f22a371efd63c1
     Pseudo is Ultrasoft + core correction, Zval =  4.0
     Generated by new atomic code, or converted to UPF format
     Using radial grid of  899 points,  6 beta functions with: 
                l(1) =   0
                l(2) =   0
                l(3) =   1
                l(4) =   1
                l(5) =   2
                l(6) =   2
     Q(r) pseudized with  8 coefficients,  rinner =    0.900   0.900   0.900
                                                       0.900   0.900


     Atomic displacements:
     There are   3 irreducible representations

     Representation     1      2 modes -  To be done

     Representation     2      2 modes -  To be done

     Representation     3      2 modes -  To be done



     Alpha used in Ewald sum =   2.5000
     PHONON       :  2m 1.90s CPU     2m33.24s WALL



     Representation #  1 modes #   1  2

     Self-consistent Calculation

      iter #   1 total cpu time :   154.0 secs   av.it.:   5.8
      thresh= 1.000E-02 alpha_mix =  0.700 |ddv_scf|^2 =  1.098E-06

      iter #   2 total cpu time :   154.9 secs   av.it.:  11.6
      thresh= 1.048E-04 alpha_mix =  0.700 |ddv_scf|^2 =  6.231E-07

      iter #   3 total cpu time :   155.6 secs   av.it.:  11.0
      thresh= 7.894E-05 alpha_mix =  0.700 |ddv_scf|^2 =  5.926E-10

      iter #   4 total cpu time :   156.4 secs   av.it.:  11.0
      thresh= 2.434E-06 alpha_mix =  0.700 |ddv_scf|^2 =  2.613E-12

      iter #   5 total cpu time :   157.1 secs   av.it.:  11.1
      thresh= 1.617E-07 alpha_mix =  0.700 |ddv_scf|^2 =  6.887E-14

     End of self-consistent calculation

     Convergence has been achieved 


     Representation #  2 modes #   3  4

     Self-consistent Calculation

      iter #   1 total cpu time :   157.8 secs   av.it.:   5.6
      thresh= 1.000E-02 alpha_mix =  0.700 |ddv_scf|^2 =  1.694E-06

      iter #   2 total cpu time :   158.7 secs   av.it.:  11.6
      thresh= 1.301E-04 alpha_mix =  0.700 |ddv_scf|^2 =  2.264E-06

      iter #   3 total cpu time :   159.5 secs   av.it.:  10.9
      thresh= 1.505E-04 alpha_mix =  0.700 |ddv_scf|^2 =  6.962E-10

      iter #   4 total cpu time :   160.3 secs   av.it.:  11.0
      thresh= 2.639E-06 alpha_mix =  0.700 |ddv_scf|^2 =  9.950E-12

      iter #   5 total cpu time :   161.0 secs   av.it.:  11.1
      thresh= 3.154E-07 alpha_mix =  0.700 |ddv_scf|^2 =  1.715E-13

     End of self-consistent calculation

     Convergence has been achieved 


     Representation #  3 modes #   5  6

     Self-consistent Calculation

      iter #   1 total cpu time :   161.7 secs   av.it.:   5.3
      thresh= 1.000E-02 alpha_mix =  0.700 |ddv_scf|^2 =  4.458E-07

      iter #   2 total cpu time :   162.8 secs   av.it.:  11.6
      thresh= 6.677E-05 alpha_mix =  0.700 |ddv_scf|^2 =  2.609E-07

      iter #   3 total cpu time :   163.6 secs   av.it.:  11.0
      thresh= 5.108E-05 alpha_mix =  0.700 |ddv_scf|^2 =  5.171E-10

      iter #   4 total cpu time :   164.4 secs   av.it.:  11.1
      thresh= 2.274E-06 alpha_mix =  0.700 |ddv_scf|^2 =  5.944E-12

      iter #   5 total cpu time :   165.1 secs   av.it.:  11.1
      thresh= 2.438E-07 alpha_mix =  0.700 |ddv_scf|^2 =  8.337E-14

     End of self-consistent calculation

     Convergence has been achieved 

     Number of q in the star =    6
     List of q in the star:
          1  -0.500000000  -1.000000000   0.000000000
          2   0.000000000   1.000000000   0.500000000
          3   0.000000000  -1.000000000  -0.500000000
          4   0.500000000   1.000000000   0.000000000
          5  -1.000000000  -0.500000000   0.000000000
          6   0.000000000  -0.500000000  -1.000000000

     Diagonalizing the dynamical matrix

     q = (   -0.500000000  -1.000000000   0.000000000 ) 

 **************************************************************************
     freq (    1) =       5.976175 [THz] =     199.343752 [cm-1]
     freq (    2) =       5.976175 [THz] =     199.343752 [cm-1]
     freq (    3) =      10.506820 [THz] =     350.469789 [cm-1]
     freq (    4) =      10.506820 [THz] =     350.469789 [cm-1]
     freq (    5) =      13.860068 [THz] =     462.322090 [cm-1]
     freq (    6) =      13.860068 [THz] =     462.322090 [cm-1]
 **************************************************************************

     init_run     :      1.23s CPU      1.28s WALL (       7 calls)
     electrons    :      7.17s CPU      7.76s WALL (       7 calls)

     Called by init_run:
     wfcinit      :      0.00s CPU      0.02s WALL (       7 calls)
     potinit      :      0.08s CPU      0.09s WALL (       7 calls)

     Called by electrons:
     c_bands      :      7.17s CPU      7.76s WALL (       7 calls)
     v_of_rho     :      0.06s CPU      0.06s WALL (       8 calls)
     newd         :      0.12s CPU      0.13s WALL (       8 calls)

     Called by c_bands:
     init_us_2    :      1.62s CPU      1.55s WALL (   16040 calls)
     cegterg      :      6.01s CPU      6.49s WALL (     796 calls)

     Called by sum_band:

     Called by *egterg:
     h_psi        :     68.53s CPU     73.42s WALL (  154426 calls)
     s_psi        :      5.58s CPU      6.92s WALL (  311254 calls)
     g_psi        :      0.05s CPU      0.07s WALL (    9666 calls)
     cdiaghg      :      0.56s CPU      0.56s WALL (   10462 calls)

     Called by h_psi:
     h_psi:pot    :     68.13s CPU     72.91s WALL (  154426 calls)
     h_psi:calbec :      3.43s CPU      3.96s WALL (  154426 calls)
     vloc_psi     :     60.05s CPU     64.82s WALL (  154426 calls)
     add_vuspsi   :      4.31s CPU      3.65s WALL (  154426 calls)

     General routines
     calbec       :      7.99s CPU      8.39s WALL (  345706 calls)
     fft          :      1.38s CPU      1.45s WALL (    5265 calls)
     ffts         :      0.21s CPU      0.22s WALL (    3320 calls)
     fftw         :     63.23s CPU     67.45s WALL ( 1383054 calls)
     interpolate  :      0.21s CPU      0.22s WALL (     572 calls)
     davcio       :      0.31s CPU      0.83s WALL (   69876 calls)

     Parallel routines
     fft_scatter  :     15.70s CPU     19.31s WALL ( 1391639 calls)

     PHONON       :  2m11.03s CPU     2m45.52s WALL

     INITIALIZATION: 
     phq_setup    :      0.22s CPU      0.41s WALL (       8 calls)
     phq_init     :      6.61s CPU      6.90s WALL (       8 calls)

     phq_init     :      6.61s CPU      6.90s WALL (       8 calls)
     set_drhoc    :      1.80s CPU      1.80s WALL (      24 calls)
     init_vloc    :      0.03s CPU      0.03s WALL (       8 calls)
     init_us_1    :      0.96s CPU      0.97s WALL (       8 calls)
     newd         :      0.12s CPU      0.13s WALL (       8 calls)
     dvanqq       :      1.14s CPU      1.16s WALL (       8 calls)
     drho         :      2.57s CPU      2.65s WALL (       8 calls)

     DYNAMICAL MATRIX:
     dynmat0      :      1.67s CPU      1.81s WALL (       8 calls)
     phqscf       :    111.03s CPU    140.41s WALL (       8 calls)
     dynmatrix    :      0.01s CPU      0.19s WALL (       8 calls)

     phqscf       :    111.03s CPU    140.41s WALL (       8 calls)
     solve_linter :    110.17s CPU    137.73s WALL (      32 calls)
     drhodv       :      0.57s CPU      0.60s WALL (      32 calls)

     dynmat0      :      1.67s CPU      1.81s WALL (       8 calls)
     dynmat_us    :      0.38s CPU      0.39s WALL (       8 calls)
     d2ionq       :      0.03s CPU      0.04s WALL (       8 calls)
     dynmatcc     :      1.25s CPU      1.25s WALL (       8 calls)

     dynmat_us    :      0.38s CPU      0.39s WALL (       8 calls)
     addusdynmat  :      0.00s CPU      0.00s WALL (       8 calls)

     phqscf       :    111.03s CPU    140.41s WALL (       8 calls)
     solve_linter :    110.17s CPU    137.73s WALL (      32 calls)

     solve_linter :    110.17s CPU    137.73s WALL (      32 calls)
     dvqpsi_us    :      2.13s CPU      2.30s WALL (    2508 calls)
     ortho        :      0.99s CPU      1.14s WALL (   13630 calls)
     cgsolve      :     75.86s CPU     82.46s WALL (   13630 calls)
     incdrhoscf   :      6.24s CPU      6.84s WALL (   13630 calls)
     addusddens   :      6.95s CPU      6.98s WALL (     202 calls)
     vpsifft      :      4.47s CPU      4.88s WALL (   11002 calls)
     dv_of_drho   :      1.22s CPU      1.27s WALL (     256 calls)
     mix_pot      :      0.37s CPU     10.54s WALL (     175 calls)
     psymdvscf    :      4.05s CPU      4.10s WALL (     170 calls)
     newdq        :      7.63s CPU      7.65s WALL (     175 calls)
     adddvscf     :      0.45s CPU      0.43s WALL (   11122 calls)
     drhodvus     :      0.01s CPU      0.02s WALL (      32 calls)

     dvqpsi_us    :      2.13s CPU      2.30s WALL (    2508 calls)
     dvqpsi_us_on :      0.93s CPU      0.97s WALL (    2508 calls)

     cgsolve      :     75.86s CPU     82.46s WALL (   13630 calls)
     ch_psi       :     74.74s CPU     80.77s WALL (  143168 calls)

     ch_psi       :     74.74s CPU     80.77s WALL (  143168 calls)
     h_psi        :     68.53s CPU     73.42s WALL (  154426 calls)
     last         :      8.83s CPU      8.98s WALL (  143168 calls)

     h_psi        :     68.53s CPU     73.42s WALL (  154426 calls)
     add_vuspsi   :      4.31s CPU      3.65s WALL (  154426 calls)

     incdrhoscf   :      6.24s CPU      6.84s WALL (   13630 calls)
     addusdbec    :      0.48s CPU      0.51s WALL (   16078 calls)

     drhodvus     :      0.01s CPU      0.02s WALL (      32 calls)

      General routines
     calbec       :      7.99s CPU      8.39s WALL (  345706 calls)
     fft          :      1.38s CPU      1.45s WALL (    5265 calls)
     ffts         :      0.21s CPU      0.22s WALL (    3320 calls)
     fftw         :     63.23s CPU     67.45s WALL ( 1383054 calls)
     davcio       :      0.31s CPU      0.83s WALL (   69876 calls)
     write_rec    :      0.23s CPU     11.30s WALL (     207 calls)


     PHONON       :  2m11.03s CPU     2m45.53s WALL


   This run was terminated on:  15:34:13  10Nov2017            

=------------------------------------------------------------------------------=
   JOB DONE.
=------------------------------------------------------------------------------=
