
     Program PWSCF v.6.1 (svn rev. 13369) starts on 10Nov2017 at 14: 7:57 

     This program is part of the open-source Quantum ESPRESSO suite
     for quantum simulation of materials; please cite
         "P. Giannozzi et al., J. Phys.:Condens. Matter 21 395502 (2009);
          URL http://www.quantum-espresso.org", 
     in publications or presentations arising from this work. More details at
     http://www.quantum-espresso.org/quote

     Parallel version (MPI), running on     4 processors
     R & G space division:  proc/nbgrp/npool/nimage =       4
     Waiting for input...
     Reading input from standard input
     Message from routine read_cards :
     DEPRECATED: no units specified in ATOMIC_POSITIONS card
     Message from routine read_cards :
     ATOMIC_POSITIONS: units set to alat

     Current dimensions of program PWSCF are:
     Max number of different atomic species (ntypx) = 10
     Max number of k-points (npk) =  40000
     Max angular momentum in pseudopotentials (lmaxx) =  3

     Subspace diagonalization in iterative solution of the eigenvalue problem:
     a serial algorithm will be used


     Parallelization info
     --------------------
     sticks:   dense  smooth     PW     G-vecs:    dense   smooth      PW
     Min         222     109     37                 4369     1545     284
     Max         223     110     38                 4370     1546     285
     Sum         889     439    151                17477     6183    1139



     bravais-lattice index     =            2
     lattice parameter (alat)  =      10.3780  a.u.
     unit-cell volume          =     279.4351 (a.u.)^3
     number of atoms/cell      =            2
     number of atomic types    =            1
     number of electrons       =         8.00
     number of Kohn-Sham states=            4
     kinetic-energy cutoff     =      30.0000  Ry
     charge density cutoff     =     240.0000  Ry
     convergence threshold     =      1.0E-08
     mixing beta               =       0.7000
     number of iterations used =            8  plain     mixing
     Exchange-correlation      = SLA  PW   PBE  PBE ( 1  4  3  4 0 0)

     celldm(1)=  10.378000  celldm(2)=   0.000000  celldm(3)=   0.000000
     celldm(4)=   0.000000  celldm(5)=   0.000000  celldm(6)=   0.000000

     crystal axes: (cart. coord. in units of alat)
               a(1) = (  -0.500000   0.000000   0.500000 )  
               a(2) = (   0.000000   0.500000   0.500000 )  
               a(3) = (  -0.500000   0.500000   0.000000 )  

     reciprocal axes: (cart. coord. in units 2 pi/alat)
               b(1) = ( -1.000000 -1.000000  1.000000 )  
               b(2) = (  1.000000  1.000000  1.000000 )  
               b(3) = ( -1.000000  1.000000 -1.000000 )  


     PseudoPot. # 1 for Si read from file:
     /home/s1333534/quantum_espresso/qe-6.1/pseudo/si_pbe_v1.uspp.F.UPF.txt
     MD5 check sum: a056efeee980c13900f22a371efd63c1
     Pseudo is Ultrasoft + core correction, Zval =  4.0
     Generated by new atomic code, or converted to UPF format
     Using radial grid of  899 points,  6 beta functions with: 
                l(1) =   0
                l(2) =   0
                l(3) =   1
                l(4) =   1
                l(5) =   2
                l(6) =   2
     Q(r) pseudized with  8 coefficients,  rinner =    0.900   0.900   0.900
                                                       0.900   0.900

     atomic species   valence    mass     pseudopotential
        Si             4.00    28.08600     Si( 1.00)

     48 Sym. Ops., with inversion, found (24 have fractional translation)



   Cartesian axes

     site n.     atom                  positions (alat units)
         1           Si  tau(   1) = (   0.0000000   0.0000000   0.0000000  )
         2           Si  tau(   2) = (   0.2500000   0.2500000   0.2500000  )

     number of k points=    10
                       cart. coord. in units 2pi/alat
        k(    1) = (  -0.1250000   0.1250000   0.1250000), wk =   0.0625000
        k(    2) = (  -0.3750000   0.3750000  -0.1250000), wk =   0.1875000
        k(    3) = (   0.3750000  -0.3750000   0.6250000), wk =   0.1875000
        k(    4) = (   0.1250000  -0.1250000   0.3750000), wk =   0.1875000
        k(    5) = (  -0.1250000   0.6250000   0.1250000), wk =   0.1875000
        k(    6) = (   0.6250000  -0.1250000   0.8750000), wk =   0.3750000
        k(    7) = (   0.3750000   0.1250000   0.6250000), wk =   0.3750000
        k(    8) = (  -0.1250000  -0.8750000   0.1250000), wk =   0.1875000
        k(    9) = (  -0.3750000   0.3750000   0.3750000), wk =   0.0625000
        k(   10) = (   0.3750000  -0.3750000   1.1250000), wk =   0.1875000

     Dense  grid:    17477 G-vectors     FFT dimensions: (  40,  40,  40)

     Smooth grid:     6183 G-vectors     FFT dimensions: (  25,  25,  25)

     Estimated max dynamical RAM per process >       3.17MB

     Estimated total allocated dynamical RAM >      12.67MB

     Initial potential from superposition of free atoms

     starting charge    7.99866, renormalised to    8.00000
     Starting wfc are    8 randomized atomic wfcs

     total cpu time spent up to now is        0.3 secs

     per-process dynamical memory:    10.1 Mb

     Self-consistent Calculation

     iteration #  1     ecut=    30.00 Ry     beta=0.70
     Davidson diagonalization with overlap
     ethr =  1.00E-02,  avg # of iterations =  2.0

     Threshold (ethr) on eigenvalues was too large:
     Diagonalizing with lowered threshold

     Davidson diagonalization with overlap
     ethr =  6.62E-04,  avg # of iterations =  1.1

     total cpu time spent up to now is        0.4 secs

     total energy              =     -19.19095880 Ry
     Harris-Foulkes estimate   =     -19.20293750 Ry
     estimated scf accuracy    <       0.05268139 Ry

     iteration #  2     ecut=    30.00 Ry     beta=0.70
     Davidson diagonalization with overlap
     ethr =  6.59E-04,  avg # of iterations =  1.0

     total cpu time spent up to now is        0.5 secs

     total energy              =     -19.19266667 Ry
     Harris-Foulkes estimate   =     -19.19283341 Ry
     estimated scf accuracy    <       0.00245879 Ry

     iteration #  3     ecut=    30.00 Ry     beta=0.70
     Davidson diagonalization with overlap
     ethr =  3.07E-05,  avg # of iterations =  2.3

     total cpu time spent up to now is        0.6 secs

     total energy              =     -19.19300380 Ry
     Harris-Foulkes estimate   =     -19.19301392 Ry
     estimated scf accuracy    <       0.00003740 Ry

     iteration #  4     ecut=    30.00 Ry     beta=0.70
     Davidson diagonalization with overlap
     ethr =  4.67E-07,  avg # of iterations =  3.3

     total cpu time spent up to now is        0.6 secs

     total energy              =     -19.19303710 Ry
     Harris-Foulkes estimate   =     -19.19303745 Ry
     estimated scf accuracy    <       0.00000174 Ry

     iteration #  5     ecut=    30.00 Ry     beta=0.70
     Davidson diagonalization with overlap
     ethr =  2.17E-08,  avg # of iterations =  2.1

     total cpu time spent up to now is        0.7 secs

     End of self-consistent calculation

          k =-0.1250 0.1250 0.1250 (   785 PWs)   bands (ev):

    -5.6845   4.2590   5.5691   5.5691

          k =-0.3750 0.3750-0.1250 (   785 PWs)   bands (ev):

    -4.6705   1.2886   3.6058   5.0924

          k = 0.3750-0.3750 0.6250 (   776 PWs)   bands (ev):

    -3.5489  -0.7606   3.6204   4.3317

          k = 0.1250-0.1250 0.3750 (   785 PWs)   bands (ev):

    -5.1629   2.6490   4.5750   4.6315

          k =-0.1250 0.6250 0.1250 (   777 PWs)   bands (ev):

    -4.1439   0.9433   3.2645   3.7112

          k = 0.6250-0.1250 0.8750 (   764 PWs)   bands (ev):

    -2.5274  -0.9990   1.9324   2.9939

          k = 0.3750 0.1250 0.6250 (   780 PWs)   bands (ev):

    -3.7349   0.0876   2.6282   3.9829

          k =-0.1250-0.8750 0.1250 (   772 PWs)   bands (ev):

    -2.6899  -0.9045   2.5331   3.2494

          k =-0.3750 0.3750 0.3750 (   775 PWs)   bands (ev):

    -4.2442   0.0189   4.7893   4.7893

          k = 0.3750-0.3750 1.1250 (   775 PWs)   bands (ev):

    -3.0588  -0.6898   1.9851   4.0194

     highest occupied level (ev):     5.5691

!    total energy              =     -19.19303738 Ry
     Harris-Foulkes estimate   =     -19.19303737 Ry
     estimated scf accuracy    <          6.7E-09 Ry

     The total energy is the sum of the following terms:

     one-electron contribution =       4.85285644 Ry
     hartree contribution      =       1.14585010 Ry
     xc contribution           =      -8.58184437 Ry
     ewald contribution        =     -16.60989954 Ry

     convergence has been achieved in   5 iterations

     Writing output data file silicon.10.378.save

     init_run     :      0.19s CPU      0.20s WALL (       1 calls)
     electrons    :      0.43s CPU      0.48s WALL (       1 calls)

     Called by init_run:
     wfcinit      :      0.01s CPU      0.02s WALL (       1 calls)
     potinit      :      0.02s CPU      0.02s WALL (       1 calls)

     Called by electrons:
     c_bands      :      0.12s CPU      0.13s WALL (       6 calls)
     sum_band     :      0.18s CPU      0.18s WALL (       6 calls)
     v_of_rho     :      0.07s CPU      0.07s WALL (       6 calls)
     newd         :      0.09s CPU      0.09s WALL (       6 calls)
     mix_rho      :      0.00s CPU      0.00s WALL (       6 calls)

     Called by c_bands:
     init_us_2    :      0.01s CPU      0.01s WALL (     130 calls)
     cegterg      :      0.09s CPU      0.11s WALL (      60 calls)

     Called by sum_band:
     sum_band:bec :      0.00s CPU      0.00s WALL (      60 calls)
     addusdens    :      0.13s CPU      0.13s WALL (       6 calls)

     Called by *egterg:
     h_psi        :      0.09s CPU      0.10s WALL (     188 calls)
     s_psi        :      0.00s CPU      0.00s WALL (     188 calls)
     g_psi        :      0.00s CPU      0.00s WALL (     118 calls)
     cdiaghg      :      0.01s CPU      0.01s WALL (     168 calls)

     Called by h_psi:
     h_psi:pot    :      0.09s CPU      0.10s WALL (     188 calls)
     h_psi:calbec :      0.00s CPU      0.01s WALL (     188 calls)
     vloc_psi     :      0.08s CPU      0.09s WALL (     188 calls)
     add_vuspsi   :      0.00s CPU      0.00s WALL (     188 calls)

     General routines
     calbec       :      0.01s CPU      0.01s WALL (     248 calls)
     fft          :      0.03s CPU      0.03s WALL (      96 calls)
     ffts         :      0.00s CPU      0.00s WALL (      12 calls)
     fftw         :      0.08s CPU      0.09s WALL (    1658 calls)
     interpolate  :      0.01s CPU      0.01s WALL (      12 calls)
     davcio       :      0.00s CPU      0.00s WALL (      10 calls)

     Parallel routines
     fft_scatter  :      0.03s CPU      0.03s WALL (    1766 calls)

     PWSCF        :     0.71s CPU         0.94s WALL


   This run was terminated on:  14: 7:58  10Nov2017            

=------------------------------------------------------------------------------=
   JOB DONE.
=------------------------------------------------------------------------------=
