
     Program PWSCF v.6.1 (svn rev. 13369) starts on 10Nov2017 at 10:15:24 

     This program is part of the open-source Quantum ESPRESSO suite
     for quantum simulation of materials; please cite
         "P. Giannozzi et al., J. Phys.:Condens. Matter 21 395502 (2009);
          URL http://www.quantum-espresso.org", 
     in publications or presentations arising from this work. More details at
     http://www.quantum-espresso.org/quote

     Parallel version (MPI), running on     4 processors
     R & G space division:  proc/nbgrp/npool/nimage =       4
     Waiting for input...
     Reading input from standard input
     Message from routine read_cards :
     DEPRECATED: no units specified in ATOMIC_POSITIONS card
     Message from routine read_cards :
     ATOMIC_POSITIONS: units set to alat

     Current dimensions of program PWSCF are:
     Max number of different atomic species (ntypx) = 10
     Max number of k-points (npk) =  40000
     Max angular momentum in pseudopotentials (lmaxx) =  3

     Subspace diagonalization in iterative solution of the eigenvalue problem:
     a serial algorithm will be used


     Parallelization info
     --------------------
     sticks:   dense  smooth     PW     G-vecs:    dense   smooth      PW
     Min         228     112     37                 4535     1593     309
     Max         229     113     38                 4538     1594     312
     Sum         913     451    151                18149     6375    1243



     bravais-lattice index     =            2
     lattice parameter (alat)  =      10.4800  a.u.
     unit-cell volume          =     287.7556 (a.u.)^3
     number of atoms/cell      =            2
     number of atomic types    =            1
     number of electrons       =         8.00
     number of Kohn-Sham states=            4
     kinetic-energy cutoff     =      30.0000  Ry
     charge density cutoff     =     240.0000  Ry
     convergence threshold     =      1.0E-08
     mixing beta               =       0.7000
     number of iterations used =            8  plain     mixing
     Exchange-correlation      = SLA  PW   PBE  PBE ( 1  4  3  4 0 0)

     celldm(1)=  10.480000  celldm(2)=   0.000000  celldm(3)=   0.000000
     celldm(4)=   0.000000  celldm(5)=   0.000000  celldm(6)=   0.000000

     crystal axes: (cart. coord. in units of alat)
               a(1) = (  -0.500000   0.000000   0.500000 )  
               a(2) = (   0.000000   0.500000   0.500000 )  
               a(3) = (  -0.500000   0.500000   0.000000 )  

     reciprocal axes: (cart. coord. in units 2 pi/alat)
               b(1) = ( -1.000000 -1.000000  1.000000 )  
               b(2) = (  1.000000  1.000000  1.000000 )  
               b(3) = ( -1.000000  1.000000 -1.000000 )  


     PseudoPot. # 1 for Si read from file:
     /home/max/quantum_espresso/qe-6.1/pseudo/si_pbe_v1.uspp.F.UPF.txt
     MD5 check sum: a056efeee980c13900f22a371efd63c1
     Pseudo is Ultrasoft + core correction, Zval =  4.0
     Generated by new atomic code, or converted to UPF format
     Using radial grid of  899 points,  6 beta functions with: 
                l(1) =   0
                l(2) =   0
                l(3) =   1
                l(4) =   1
                l(5) =   2
                l(6) =   2
     Q(r) pseudized with  8 coefficients,  rinner =    0.900   0.900   0.900
                                                       0.900   0.900

     atomic species   valence    mass     pseudopotential
        Si             4.00    28.08600     Si( 1.00)

     48 Sym. Ops., with inversion, found (24 have fractional translation)



   Cartesian axes

     site n.     atom                  positions (alat units)
         1           Si  tau(   1) = (   0.0000000   0.0000000   0.0000000  )
         2           Si  tau(   2) = (   0.2500000   0.2500000   0.2500000  )

     number of k points=    28
                       cart. coord. in units 2pi/alat
        k(    1) = (  -0.0833333   0.0833333   0.0833333), wk =   0.0185185
        k(    2) = (  -0.2500000   0.2500000  -0.0833333), wk =   0.0555556
        k(    3) = (  -0.4166667   0.4166667  -0.2500000), wk =   0.0555556
        k(    4) = (   0.4166667  -0.4166667   0.5833333), wk =   0.0555556
        k(    5) = (   0.2500000  -0.2500000   0.4166667), wk =   0.0555556
        k(    6) = (   0.0833333  -0.0833333   0.2500000), wk =   0.0555556
        k(    7) = (  -0.0833333   0.4166667   0.0833333), wk =   0.0555556
        k(    8) = (  -0.2500000   0.5833333  -0.0833333), wk =   0.1111111
        k(    9) = (   0.5833333  -0.2500000   0.7500000), wk =   0.1111111
        k(   10) = (   0.4166667  -0.0833333   0.5833333), wk =   0.1111111
        k(   11) = (   0.2500000   0.0833333   0.4166667), wk =   0.1111111
        k(   12) = (  -0.0833333   0.7500000   0.0833333), wk =   0.0555556
        k(   13) = (   0.7500000  -0.0833333   0.9166667), wk =   0.1111111
        k(   14) = (   0.5833333   0.0833333   0.7500000), wk =   0.1111111
        k(   15) = (   0.4166667   0.2500000   0.5833333), wk =   0.1111111
        k(   16) = (  -0.0833333  -0.9166667   0.0833333), wk =   0.0555556
        k(   17) = (  -0.2500000  -0.7500000  -0.0833333), wk =   0.1111111
        k(   18) = (  -0.0833333  -0.5833333   0.0833333), wk =   0.0555556
        k(   19) = (  -0.2500000   0.2500000   0.2500000), wk =   0.0185185
        k(   20) = (  -0.4166667   0.4166667   0.0833333), wk =   0.0555556
        k(   21) = (   0.4166667  -0.4166667   0.9166667), wk =   0.0555556
        k(   22) = (   0.2500000  -0.2500000   0.7500000), wk =   0.0555556
        k(   23) = (  -0.2500000   0.5833333   0.2500000), wk =   0.0555556
        k(   24) = (   0.5833333  -0.2500000   1.0833333), wk =   0.1111111
        k(   25) = (   0.4166667  -0.0833333   0.9166667), wk =   0.1111111
        k(   26) = (  -0.2500000  -1.0833333   0.2500000), wk =   0.0555556
        k(   27) = (  -0.4166667   0.4166667   0.4166667), wk =   0.0185185
        k(   28) = (   0.4166667  -0.4166667   1.2500000), wk =   0.0555556

     Dense  grid:    18149 G-vectors     FFT dimensions: (  40,  40,  40)

     Smooth grid:     6375 G-vectors     FFT dimensions: (  25,  25,  25)

     Estimated max dynamical RAM per process >       3.46MB

     Estimated total allocated dynamical RAM >      13.85MB

     Initial potential from superposition of free atoms

     starting charge    7.99866, renormalised to    8.00000
     Starting wfc are    8 randomized atomic wfcs

     total cpu time spent up to now is        0.7 secs

     per-process dynamical memory:    10.7 Mb

     Self-consistent Calculation

     iteration #  1     ecut=    30.00 Ry     beta=0.70
     Davidson diagonalization with overlap
     ethr =  1.00E-02,  avg # of iterations =  2.0

     Threshold (ethr) on eigenvalues was too large:
     Diagonalizing with lowered threshold

     Davidson diagonalization with overlap
     ethr =  6.31E-04,  avg # of iterations =  1.0

     total cpu time spent up to now is        1.2 secs

     total energy              =     -19.19008758 Ry
     Harris-Foulkes estimate   =     -19.20089016 Ry
     estimated scf accuracy    <       0.05006753 Ry

     iteration #  2     ecut=    30.00 Ry     beta=0.70
     Davidson diagonalization with overlap
     ethr =  6.26E-04,  avg # of iterations =  1.0

     total cpu time spent up to now is        1.4 secs

     total energy              =     -19.19158225 Ry
     Harris-Foulkes estimate   =     -19.19175015 Ry
     estimated scf accuracy    <       0.00245277 Ry

     iteration #  3     ecut=    30.00 Ry     beta=0.70
     Davidson diagonalization with overlap
     ethr =  3.07E-05,  avg # of iterations =  2.1

     total cpu time spent up to now is        1.6 secs

     total energy              =     -19.19188677 Ry
     Harris-Foulkes estimate   =     -19.19189619 Ry
     estimated scf accuracy    <       0.00003473 Ry

     iteration #  4     ecut=    30.00 Ry     beta=0.70
     Davidson diagonalization with overlap
     ethr =  4.34E-07,  avg # of iterations =  3.4

     total cpu time spent up to now is        2.0 secs

     total energy              =     -19.19192195 Ry
     Harris-Foulkes estimate   =     -19.19192224 Ry
     estimated scf accuracy    <       0.00000138 Ry

     iteration #  5     ecut=    30.00 Ry     beta=0.70
     Davidson diagonalization with overlap
     ethr =  1.72E-08,  avg # of iterations =  2.2

     total cpu time spent up to now is        2.5 secs

     End of self-consistent calculation

          k =-0.0833 0.0833 0.0833 (   809 PWs)   bands (ev):

    -5.8970   4.6903   5.4199   5.4199

          k =-0.2500 0.2500-0.0833 (   805 PWs)   bands (ev):

    -5.4448   2.6581   4.2518   5.2126

          k =-0.4167 0.4167-0.2500 (   800 PWs)   bands (ev):

    -4.4150   0.0311   3.7915   4.6066

          k = 0.4167-0.4167 0.5833 (   799 PWs)   bands (ev):

    -3.7695  -1.0407   3.8442   4.2486

          k = 0.2500-0.2500 0.4167 (   798 PWs)   bands (ev):

    -4.8015   0.8336   4.3132   4.3186

          k = 0.0833-0.0833 0.2500 (   805 PWs)   bands (ev):

    -5.6685   3.6279   4.8146   4.9691

          k =-0.0833 0.4167 0.0833 (   810 PWs)   bands (ev):

    -5.2156   2.4340   4.0933   4.1233

          k =-0.2500 0.5833-0.0833 (   804 PWs)   bands (ev):

    -4.3541   0.6673   2.8566   3.7522

          k = 0.5833-0.2500 0.7500 (   798 PWs)   bands (ev):

    -3.3143  -0.9655   2.2687   3.5425

          k = 0.4167-0.0833 0.5833 (   800 PWs)   bands (ev):

    -3.9847   0.0179   2.2497   3.9959

          k = 0.2500 0.0833 0.4167 (   808 PWs)   bands (ev):

    -5.0026   1.6561   3.5144   4.6176

          k =-0.0833 0.7500 0.0833 (   794 PWs)   bands (ev):

    -3.6773  -0.1532   2.8309   3.1435

          k = 0.7500-0.0833 0.9167 (   789 PWs)   bands (ev):

    -2.5505  -1.4315   2.0499   2.7689

          k = 0.5833 0.0833 0.7500 (   800 PWs)   bands (ev):

    -2.9152  -1.0867   1.5897   3.2824

          k = 0.4167 0.2500 0.5833 (   801 PWs)   bands (ev):

    -3.8852  -0.5878   3.1090   4.0851

          k =-0.0833-0.9167 0.0833 (   790 PWs)   bands (ev):

    -2.6307  -1.4362   2.5767   2.9379

          k =-0.2500-0.7500-0.0833 (   793 PWs)   bands (ev):

    -3.5215  -0.3604   2.3425   3.0916

          k =-0.0833-0.5833 0.0833 (   808 PWs)   bands (ev):

    -4.5469   1.1596   3.3410   3.5461

          k =-0.2500 0.2500 0.2500 (   806 PWs)   bands (ev):

    -5.2277   1.7359   4.8348   4.8348

          k =-0.4167 0.4167 0.0833 (   800 PWs)   bands (ev):

    -4.5854   0.8053   2.8209   4.6694

          k = 0.4167-0.4167 0.9167 (   793 PWs)   bands (ev):

    -3.4781  -0.5892   1.7841   3.9300

          k = 0.2500-0.2500 0.7500 (   797 PWs)   bands (ev):

    -3.4257  -0.6661   2.2261   3.4766

          k =-0.2500 0.5833 0.2500 (   800 PWs)   bands (ev):

    -4.1861   0.0452   3.2325   3.8305

          k = 0.5833-0.2500 1.0833 (   797 PWs)   bands (ev):

    -3.2421  -0.7191   1.8822   3.0954

          k = 0.4167-0.0833 0.9167 (   790 PWs)   bands (ev):

    -2.4588  -1.4390   1.7434   2.4720

          k =-0.2500-1.0833 0.2500 (   794 PWs)   bands (ev):

    -2.6600  -1.3342   1.6238   3.2919

          k =-0.4167 0.4167 0.4167 (   799 PWs)   bands (ev):

    -4.1106  -0.6628   4.4594   4.4594

          k = 0.4167-0.4167 1.2500 (   802 PWs)   bands (ev):

    -3.5448  -0.9687   2.7093   4.0484

     highest occupied level (ev):     5.4199

!    total energy              =     -19.19192219 Ry
     Harris-Foulkes estimate   =     -19.19192219 Ry
     estimated scf accuracy    <          4.4E-09 Ry

     The total energy is the sum of the following terms:

     one-electron contribution =       4.63268083 Ry
     hartree contribution      =       1.17143848 Ry
     xc contribution           =      -8.54780319 Ry
     ewald contribution        =     -16.44823831 Ry

     convergence has been achieved in   5 iterations

     Writing output data file silicon.10.48.save

     init_run     :      0.40s CPU      0.60s WALL (       1 calls)
     electrons    :      1.25s CPU      1.77s WALL (       1 calls)

     Called by init_run:
     wfcinit      :      0.08s CPU      0.10s WALL (       1 calls)
     potinit      :      0.02s CPU      0.03s WALL (       1 calls)

     Called by electrons:
     c_bands      :      0.73s CPU      1.03s WALL (       6 calls)
     sum_band     :      0.29s CPU      0.47s WALL (       6 calls)
     v_of_rho     :      0.11s CPU      0.13s WALL (       6 calls)
     newd         :      0.14s CPU      0.16s WALL (       6 calls)
     mix_rho      :      0.01s CPU      0.01s WALL (       6 calls)

     Called by c_bands:
     init_us_2    :      0.05s CPU      0.06s WALL (     364 calls)
     cegterg      :      0.62s CPU      0.89s WALL (     168 calls)

     Called by sum_band:
     sum_band:bec :      0.00s CPU      0.00s WALL (     168 calls)
     addusdens    :      0.13s CPU      0.18s WALL (       6 calls)

     Called by *egterg:
     h_psi        :      0.54s CPU      0.75s WALL (     525 calls)
     s_psi        :      0.05s CPU      0.05s WALL (     525 calls)
     g_psi        :      0.00s CPU      0.00s WALL (     329 calls)
     cdiaghg      :      0.04s CPU      0.05s WALL (     469 calls)

     Called by h_psi:
     h_psi:pot    :      0.54s CPU      0.75s WALL (     525 calls)
     h_psi:calbec :      0.06s CPU      0.08s WALL (     525 calls)
     vloc_psi     :      0.43s CPU      0.62s WALL (     525 calls)
     add_vuspsi   :      0.05s CPU      0.05s WALL (     525 calls)

     General routines
     calbec       :      0.08s CPU      0.11s WALL (     693 calls)
     fft          :      0.07s CPU      0.09s WALL (      96 calls)
     ffts         :      0.00s CPU      0.00s WALL (      12 calls)
     fftw         :      0.43s CPU      0.69s WALL (    4648 calls)
     interpolate  :      0.01s CPU      0.01s WALL (      12 calls)
     davcio       :      0.00s CPU      0.00s WALL (      28 calls)

     Parallel routines
     fft_scatter  :      0.20s CPU      0.43s WALL (    4756 calls)

     PWSCF        :     1.87s CPU         2.63s WALL


   This run was terminated on:  10:15:26  10Nov2017            

=------------------------------------------------------------------------------=
   JOB DONE.
=------------------------------------------------------------------------------=
