
     Program PHONON v.6.1 (svn rev. 13369) starts on  9Nov2017 at 17:21: 3 

     This program is part of the open-source Quantum ESPRESSO suite
     for quantum simulation of materials; please cite
         "P. Giannozzi et al., J. Phys.:Condens. Matter 21 395502 (2009);
          URL http://www.quantum-espresso.org", 
     in publications or presentations arising from this work. More details at
     http://www.quantum-espresso.org/quote

     Parallel version (MPI), running on     4 processors
     R & G space division:  proc/nbgrp/npool/nimage =       4

     Reading data from directory:
     ./silicon.10.394.save

   Info: using nr1, nr2, nr3 values from input

   Info: using nr1, nr2, nr3 values from input

     IMPORTANT: XC functional enforced from input :
     Exchange-correlation      = SLA  PW   PBE  PBE ( 1  4  3  4 0 0)
     Any further DFT definition will be discarded
     Please, verify this is what you really want


     Parallelization info
     --------------------
     sticks:   dense  smooth     PW     G-vecs:    dense   smooth      PW
     Min          66      66     22                  722      722     152
     Max          67      67     23                  724      724     153
     Sum         265     265     91                 2891     2891     609


     Check: negative/imaginary core charge=   -0.000006    0.000000


     Dynamical matrices for ( 4, 4, 4)  uniform grid of q-points
     (   8q-points):
       N         xq(1)         xq(2)         xq(3) 
       1   0.000000000   0.000000000   0.000000000
       2  -0.250000000   0.250000000  -0.250000000
       3   0.500000000  -0.500000000   0.500000000
       4   0.000000000   0.500000000   0.000000000
       5   0.750000000  -0.250000000   0.750000000
       6   0.500000000   0.000000000   0.500000000
       7   0.000000000  -1.000000000   0.000000000
       8  -0.500000000  -1.000000000   0.000000000

     Calculation of q =    0.0000000   0.0000000   0.0000000

                                                                                

     bravais-lattice index     =            2
     lattice parameter (alat)  =      10.3940  a.u.
     unit-cell volume          =     280.7296 (a.u.)^3
     number of atoms/cell      =            2
     number of atomic types    =            1
     kinetic-energy cut-off    =      18.0000  Ry
     charge density cut-off    =      72.0000  Ry
     convergence threshold     =      1.0E-12
     beta                      =       0.7000
     number of iterations used =            4
     Exchange-correlation      = SLA  PW   PBE  PBE ( 1  4  3  4 0 0)


     celldm(1)=   10.39400  celldm(2)=    0.00000  celldm(3)=    0.00000
     celldm(4)=    0.00000  celldm(5)=    0.00000  celldm(6)=    0.00000

     crystal axes: (cart. coord. in units of alat)
               a(1) = ( -0.5000  0.0000  0.5000 )  
               a(2) = (  0.0000  0.5000  0.5000 )  
               a(3) = ( -0.5000  0.5000  0.0000 )  

     reciprocal axes: (cart. coord. in units 2 pi/alat)
               b(1) = ( -1.0000 -1.0000  1.0000 )  
               b(2) = (  1.0000  1.0000  1.0000 )  
               b(3) = ( -1.0000  1.0000 -1.0000 )  


     Atoms inside the unit cell: 

     Cartesian axes

     site n.  atom      mass           positions (alat units)
        1     Si  28.0860   tau(    1) = (    0.00000    0.00000    0.00000  )
        2     Si  28.0860   tau(    2) = (    0.25000    0.25000    0.25000  )

     Computing dynamical matrix for 
                    q = (   0.0000000   0.0000000   0.0000000 )

     49 Sym.Ops. (with q -> -q+G )


     G cutoff =  197.0326  (    722 G-vectors)     FFT grid: ( 20, 20, 20)
     number of k points=    10

     PseudoPot. # 1 for Si read from file:
     /home/max/quantum_espresso/qe-6.1/pseudo/si_pbe_v1.uspp.F.UPF.txt
     MD5 check sum: a056efeee980c13900f22a371efd63c1
     Pseudo is Ultrasoft + core correction, Zval =  4.0
     Generated by new atomic code, or converted to UPF format
     Using radial grid of  899 points,  6 beta functions with: 
                l(1) =   0
                l(2) =   0
                l(3) =   1
                l(4) =   1
                l(5) =   2
                l(6) =   2
     Q(r) pseudized with  8 coefficients,  rinner =    0.900   0.900   0.900
                                                       0.900   0.900

     Mode symmetry, O_h (m-3m)  point group:


     Electric field:
     Dielectric constant
     Born effective charges in two ways 


     Atomic displacements:
     There are   2 irreducible representations

     Representation     1      3 modes -T_2g G_25' G_5+  To be done

     Representation     2      3 modes -T_1u G_15  G_4-  To be done



     Alpha used in Ewald sum =   0.7000
     PHONON       :     0.40s CPU         0.41s WALL


     Electric Fields Calculation

      iter #   1 total cpu time :     1.0 secs   av.it.:   5.6
      thresh= 1.000E-02 alpha_mix =  0.700 |ddv_scf|^2 =  9.545E-07

      iter #   2 total cpu time :     1.1 secs   av.it.:   9.9
      thresh= 9.770E-05 alpha_mix =  0.700 |ddv_scf|^2 =  6.214E-08

      iter #   3 total cpu time :     1.3 secs   av.it.:   9.8
      thresh= 2.493E-05 alpha_mix =  0.700 |ddv_scf|^2 =  4.934E-09

      iter #   4 total cpu time :     1.5 secs   av.it.:   9.0
      thresh= 7.024E-06 alpha_mix =  0.700 |ddv_scf|^2 =  2.988E-11

      iter #   5 total cpu time :     1.6 secs   av.it.:   9.1
      thresh= 5.466E-07 alpha_mix =  0.700 |ddv_scf|^2 =  1.542E-14

     End of electric fields calculation

          Dielectric constant in cartesian axis 

          (      14.006173713      -0.000000000      -0.000000000 )
          (      -0.000000000      14.006173713       0.000000000 )
          (      -0.000000000      -0.000000000      14.006173713 )

          Effective charges (d Force / dE) in cartesian axis

           atom      1   Si 
      Ex  (       -0.03373       -0.00000       -0.00000 )
      Ey  (       -0.00000       -0.03373       -0.00000 )
      Ez  (        0.00000       -0.00000       -0.03373 )
           atom      2   Si 
      Ex  (       -0.03373        0.00000        0.00000 )
      Ey  (        0.00000       -0.03373       -0.00000 )
      Ez  (        0.00000       -0.00000       -0.03373 )


     Representation #  1 modes #   1  2  3

     Self-consistent Calculation

      iter #   1 total cpu time :     2.0 secs   av.it.:   4.9
      thresh= 1.000E-02 alpha_mix =  0.700 |ddv_scf|^2 =  1.849E-07

      iter #   2 total cpu time :     2.2 secs   av.it.:  10.0
      thresh= 4.300E-05 alpha_mix =  0.700 |ddv_scf|^2 =  1.020E-08

      iter #   3 total cpu time :     2.4 secs   av.it.:   9.5
      thresh= 1.010E-05 alpha_mix =  0.700 |ddv_scf|^2 =  7.056E-10

      iter #   4 total cpu time :     2.8 secs   av.it.:   9.1
      thresh= 2.656E-06 alpha_mix =  0.700 |ddv_scf|^2 =  1.815E-12

      iter #   5 total cpu time :     2.9 secs   av.it.:   9.4
      thresh= 1.347E-07 alpha_mix =  0.700 |ddv_scf|^2 =  1.533E-14

     End of self-consistent calculation

     Convergence has been achieved 


     Representation #  2 modes #   4  5  6

     Self-consistent Calculation

      iter #   1 total cpu time :     3.2 secs   av.it.:   5.0
      thresh= 1.000E-02 alpha_mix =  0.700 |ddv_scf|^2 =  1.919E-07

      iter #   2 total cpu time :     3.3 secs   av.it.:   9.6
      thresh= 4.381E-05 alpha_mix =  0.700 |ddv_scf|^2 =  1.582E-08

      iter #   3 total cpu time :     3.5 secs   av.it.:   9.2
      thresh= 1.258E-05 alpha_mix =  0.700 |ddv_scf|^2 =  9.504E-10

      iter #   4 total cpu time :     3.7 secs   av.it.:   9.5
      thresh= 3.083E-06 alpha_mix =  0.700 |ddv_scf|^2 =  5.531E-12

      iter #   5 total cpu time :     3.9 secs   av.it.:   9.1
      thresh= 2.352E-07 alpha_mix =  0.700 |ddv_scf|^2 =  5.057E-15

     End of self-consistent calculation

     Convergence has been achieved 

     Number of q in the star =    1
     List of q in the star:
          1   0.000000000   0.000000000   0.000000000

          Dielectric constant in cartesian axis 

          (      14.006173713      -0.000000000      -0.000000000 )
          (      -0.000000000      14.006173713       0.000000000 )
          (      -0.000000000      -0.000000000      14.006173713 )

          Effective charges (d Force / dE) in cartesian axis

           atom      1   Si 
      Ex  (       -0.03373       -0.00000       -0.00000 )
      Ey  (       -0.00000       -0.03373       -0.00000 )
      Ez  (        0.00000       -0.00000       -0.03373 )
           atom      2   Si 
      Ex  (       -0.03373        0.00000        0.00000 )
      Ey  (        0.00000       -0.03373       -0.00000 )
      Ez  (        0.00000       -0.00000       -0.03373 )

          Effective charges (d P / du) in cartesian axis 

           atom      1   Si 
      Px  (       -0.07578        0.00000       -0.00000 )
      Py  (        0.00000       -0.07578       -0.00000 )
      Pz  (        0.00000        0.00000       -0.07578 )
           atom      2   Si 
      Px  (       -0.07578        0.00000       -0.00000 )
      Py  (        0.00000       -0.07578       -0.00000 )
      Pz  (        0.00000       -0.00000       -0.07578 )

     Diagonalizing the dynamical matrix

     q = (    0.000000000   0.000000000   0.000000000 ) 

 **************************************************************************
     freq (    1) =       1.790878 [THz] =      59.737276 [cm-1]
     freq (    2) =       1.790878 [THz] =      59.737276 [cm-1]
     freq (    3) =       1.790878 [THz] =      59.737276 [cm-1]
     freq (    4) =      15.591860 [THz] =     520.088453 [cm-1]
     freq (    5) =      15.591860 [THz] =     520.088453 [cm-1]
     freq (    6) =      15.591860 [THz] =     520.088453 [cm-1]
 **************************************************************************

     Mode symmetry, O_h (m-3m)  point group:

     freq (  1 -  3) =         59.7  [cm-1]   --> T_1u G_15  G_4- I  
     freq (  4 -  6) =        520.1  [cm-1]   --> T_2g G_25' G_5+ R  

     Calculation of q =   -0.2500000   0.2500000  -0.2500000

   Info: using nr1, nr2, nr3 values from input

   Info: using nr1, nr2, nr3 values from input

     Parallelization info
     --------------------
     sticks:   dense  smooth     PW     G-vecs:    dense   smooth      PW
     Min          66      66     24                  722      722     161
     Max          67      67     25                  724      724     162
     Sum         265     265     97                 2891     2891     645



     bravais-lattice index     =            2
     lattice parameter (alat)  =      10.3940  a.u.
     unit-cell volume          =     280.7296 (a.u.)^3
     number of atoms/cell      =            2
     number of atomic types    =            1
     number of electrons       =         8.00
     number of Kohn-Sham states=            4
     kinetic-energy cutoff     =      18.0000  Ry
     charge density cutoff     =      72.0000  Ry
     Exchange-correlation      = SLA  PW   PBE  PBE ( 1  4  3  4 0 0)

     celldm(1)=  10.394000  celldm(2)=   0.000000  celldm(3)=   0.000000
     celldm(4)=   0.000000  celldm(5)=   0.000000  celldm(6)=   0.000000

     crystal axes: (cart. coord. in units of alat)
               a(1) = (  -0.500000   0.000000   0.500000 )  
               a(2) = (   0.000000   0.500000   0.500000 )  
               a(3) = (  -0.500000   0.500000   0.000000 )  

     reciprocal axes: (cart. coord. in units 2 pi/alat)
               b(1) = ( -1.000000 -1.000000  1.000000 )  
               b(2) = (  1.000000  1.000000  1.000000 )  
               b(3) = ( -1.000000  1.000000 -1.000000 )  


     PseudoPot. # 1 for Si read from file:
     /home/max/quantum_espresso/qe-6.1/pseudo/si_pbe_v1.uspp.F.UPF.txt
     MD5 check sum: a056efeee980c13900f22a371efd63c1
     Pseudo is Ultrasoft + core correction, Zval =  4.0
     Generated by new atomic code, or converted to UPF format
     Using radial grid of  899 points,  6 beta functions with: 
                l(1) =   0
                l(2) =   0
                l(3) =   1
                l(4) =   1
                l(5) =   2
                l(6) =   2
     Q(r) pseudized with  8 coefficients,  rinner =    0.900   0.900   0.900
                                                       0.900   0.900

     atomic species   valence    mass     pseudopotential
        Si             4.00    28.08600     Si( 1.00)

     48 Sym. Ops., with inversion, found



   Cartesian axes

     site n.     atom                  positions (alat units)
         1           Si  tau(   1) = (   0.0000000   0.0000000   0.0000000  )
         2           Si  tau(   2) = (   0.2500000   0.2500000   0.2500000  )

     number of k points=   120

     Number of k-points >= 100: set verbosity='high' to print them.

     Dense  grid:     2891 G-vectors     FFT dimensions: (  20,  20,  20)

     Estimated max dynamical RAM per process >       0.33MB

     Estimated total allocated dynamical RAM >       1.33MB

     Check: negative/imaginary core charge=   -0.000006    0.000000

     The potential is recalculated from file :
     ./_ph0/silicon.10.394.save/charge-density.dat

     Starting wfc are    8 atomic wfcs

     Band Structure Calculation
     Davidson diagonalization with overlap

     ethr =  1.25E-10,  avg # of iterations = 11.7

     total cpu time spent up to now is        0.9 secs

     End of band structure calculation

     Number of k-points >= 100: set verbosity='high' to print the bands.

     highest occupied level (ev):     5.5270

     Writing output data file silicon.10.394.save

                                                                                

     bravais-lattice index     =            2
     lattice parameter (alat)  =      10.3940  a.u.
     unit-cell volume          =     280.7296 (a.u.)^3
     number of atoms/cell      =            2
     number of atomic types    =            1
     kinetic-energy cut-off    =      18.0000  Ry
     charge density cut-off    =      72.0000  Ry
     convergence threshold     =      1.0E-12
     beta                      =       0.7000
     number of iterations used =            4
     Exchange-correlation      = SLA  PW   PBE  PBE ( 1  4  3  4 0 0)


     celldm(1)=   10.39400  celldm(2)=    0.00000  celldm(3)=    0.00000
     celldm(4)=    0.00000  celldm(5)=    0.00000  celldm(6)=    0.00000

     crystal axes: (cart. coord. in units of alat)
               a(1) = ( -0.5000  0.0000  0.5000 )  
               a(2) = (  0.0000  0.5000  0.5000 )  
               a(3) = ( -0.5000  0.5000  0.0000 )  

     reciprocal axes: (cart. coord. in units 2 pi/alat)
               b(1) = ( -1.0000 -1.0000  1.0000 )  
               b(2) = (  1.0000  1.0000  1.0000 )  
               b(3) = ( -1.0000  1.0000 -1.0000 )  


     Atoms inside the unit cell: 

     Cartesian axes

     site n.  atom      mass           positions (alat units)
        1     Si  28.0860   tau(    1) = (    0.00000    0.00000    0.00000  )
        2     Si  28.0860   tau(    2) = (    0.25000    0.25000    0.25000  )

     Computing dynamical matrix for 
                    q = (  -0.2500000   0.2500000  -0.2500000 )

      6 Sym.Ops. (no q -> -q+G )


     G cutoff =  197.0326  (    722 G-vectors)     FFT grid: ( 20, 20, 20)
     number of k points=   120

     PseudoPot. # 1 for Si read from file:
     /home/max/quantum_espresso/qe-6.1/pseudo/si_pbe_v1.uspp.F.UPF.txt
     MD5 check sum: a056efeee980c13900f22a371efd63c1
     Pseudo is Ultrasoft + core correction, Zval =  4.0
     Generated by new atomic code, or converted to UPF format
     Using radial grid of  899 points,  6 beta functions with: 
                l(1) =   0
                l(2) =   0
                l(3) =   1
                l(4) =   1
                l(5) =   2
                l(6) =   2
     Q(r) pseudized with  8 coefficients,  rinner =    0.900   0.900   0.900
                                                       0.900   0.900

     Mode symmetry, C_3v (3m)   point group:


     Atomic displacements:
     There are   4 irreducible representations

     Representation     1      1 modes -A_1  L_1  To be done

     Representation     2      1 modes -A_1  L_1  To be done

     Representation     3      2 modes -E    L_3  To be done

     Representation     4      2 modes -E    L_3  To be done



     Alpha used in Ewald sum =   0.7000
     PHONON       :     5.08s CPU         5.27s WALL



     Representation #  1 mode #   1

     Self-consistent Calculation

      iter #   1 total cpu time :     5.5 secs   av.it.:   5.5
      thresh= 1.000E-02 alpha_mix =  0.700 |ddv_scf|^2 =  2.430E-03

      iter #   2 total cpu time :     5.7 secs   av.it.:   7.5
      thresh= 4.929E-03 alpha_mix =  0.700 |ddv_scf|^2 =  3.693E-02

      iter #   3 total cpu time :     6.0 secs   av.it.:   6.3
      thresh= 1.000E-02 alpha_mix =  0.700 |ddv_scf|^2 =  1.712E-06

      iter #   4 total cpu time :     6.2 secs   av.it.:   8.2
      thresh= 1.308E-04 alpha_mix =  0.700 |ddv_scf|^2 =  1.144E-07

      iter #   5 total cpu time :     6.5 secs   av.it.:   8.1
      thresh= 3.382E-05 alpha_mix =  0.700 |ddv_scf|^2 =  4.401E-09

      iter #   6 total cpu time :     6.9 secs   av.it.:   8.1
      thresh= 6.634E-06 alpha_mix =  0.700 |ddv_scf|^2 =  3.447E-09

      iter #   7 total cpu time :     7.1 secs   av.it.:   6.4
      thresh= 5.871E-06 alpha_mix =  0.700 |ddv_scf|^2 =  6.935E-10

      iter #   8 total cpu time :     7.3 secs   av.it.:   7.2
      thresh= 2.633E-06 alpha_mix =  0.700 |ddv_scf|^2 =  4.087E-12

      iter #   9 total cpu time :     7.6 secs   av.it.:   7.2
      thresh= 2.022E-07 alpha_mix =  0.700 |ddv_scf|^2 =  2.008E-13

     End of self-consistent calculation

     Convergence has been achieved 


     Representation #  2 mode #   2

     Self-consistent Calculation

      iter #   1 total cpu time :     7.8 secs   av.it.:   5.5
      thresh= 1.000E-02 alpha_mix =  0.700 |ddv_scf|^2 =  2.430E-03

      iter #   2 total cpu time :     8.1 secs   av.it.:   7.5
      thresh= 4.929E-03 alpha_mix =  0.700 |ddv_scf|^2 =  3.693E-02

      iter #   3 total cpu time :     8.3 secs   av.it.:   6.3
      thresh= 1.000E-02 alpha_mix =  0.700 |ddv_scf|^2 =  1.712E-06

      iter #   4 total cpu time :     8.6 secs   av.it.:   8.2
      thresh= 1.308E-04 alpha_mix =  0.700 |ddv_scf|^2 =  1.144E-07

      iter #   5 total cpu time :     9.0 secs   av.it.:   8.1
      thresh= 3.382E-05 alpha_mix =  0.700 |ddv_scf|^2 =  4.401E-09

      iter #   6 total cpu time :     9.2 secs   av.it.:   8.1
      thresh= 6.634E-06 alpha_mix =  0.700 |ddv_scf|^2 =  3.447E-09

      iter #   7 total cpu time :     9.4 secs   av.it.:   6.4
      thresh= 5.871E-06 alpha_mix =  0.700 |ddv_scf|^2 =  6.935E-10

      iter #   8 total cpu time :     9.7 secs   av.it.:   7.2
      thresh= 2.633E-06 alpha_mix =  0.700 |ddv_scf|^2 =  4.087E-12

      iter #   9 total cpu time :     9.9 secs   av.it.:   7.2
      thresh= 2.022E-07 alpha_mix =  0.700 |ddv_scf|^2 =  2.008E-13

     End of self-consistent calculation

     Convergence has been achieved 


     Representation #  3 modes #   3  4

     Self-consistent Calculation

      iter #   1 total cpu time :    10.3 secs   av.it.:   4.9
      thresh= 1.000E-02 alpha_mix =  0.700 |ddv_scf|^2 =  5.347E-07

      iter #   2 total cpu time :    11.1 secs   av.it.:   9.6
      thresh= 7.312E-05 alpha_mix =  0.700 |ddv_scf|^2 =  4.004E-08

      iter #   3 total cpu time :    11.6 secs   av.it.:   9.3
      thresh= 2.001E-05 alpha_mix =  0.700 |ddv_scf|^2 =  3.441E-09

      iter #   4 total cpu time :    12.2 secs   av.it.:   9.0
      thresh= 5.866E-06 alpha_mix =  0.700 |ddv_scf|^2 =  1.137E-11

      iter #   5 total cpu time :    12.9 secs   av.it.:   9.2
      thresh= 3.372E-07 alpha_mix =  0.700 |ddv_scf|^2 =  5.086E-13

     End of self-consistent calculation

     Convergence has been achieved 


     Representation #  4 modes #   5  6

     Self-consistent Calculation

      iter #   1 total cpu time :    13.3 secs   av.it.:   5.0
      thresh= 1.000E-02 alpha_mix =  0.700 |ddv_scf|^2 =  5.345E-07

      iter #   2 total cpu time :    13.9 secs   av.it.:   9.7
      thresh= 7.311E-05 alpha_mix =  0.700 |ddv_scf|^2 =  3.998E-08

      iter #   3 total cpu time :    14.5 secs   av.it.:   9.4
      thresh= 2.000E-05 alpha_mix =  0.700 |ddv_scf|^2 =  3.437E-09

      iter #   4 total cpu time :    15.2 secs   av.it.:   9.1
      thresh= 5.863E-06 alpha_mix =  0.700 |ddv_scf|^2 =  1.138E-11

      iter #   5 total cpu time :    15.8 secs   av.it.:   9.3
      thresh= 3.374E-07 alpha_mix =  0.700 |ddv_scf|^2 =  5.092E-13

     End of self-consistent calculation

     Convergence has been achieved 

     Number of q in the star =    8
     List of q in the star:
          1  -0.250000000   0.250000000  -0.250000000
          2   0.250000000  -0.250000000  -0.250000000
          3   0.250000000  -0.250000000   0.250000000
          4   0.250000000   0.250000000   0.250000000
          5  -0.250000000  -0.250000000  -0.250000000
          6  -0.250000000  -0.250000000   0.250000000
          7  -0.250000000   0.250000000   0.250000000
          8   0.250000000   0.250000000  -0.250000000

     Diagonalizing the dynamical matrix

     q = (   -0.250000000   0.250000000  -0.250000000 ) 

 **************************************************************************
     freq (    1) =       3.410122 [THz] =     113.749436 [cm-1]
     freq (    2) =       3.410122 [THz] =     113.749436 [cm-1]
     freq (    3) =       6.821585 [THz] =     227.543590 [cm-1]
     freq (    4) =      14.687718 [THz] =     489.929521 [cm-1]
     freq (    5) =      14.970707 [THz] =     499.369017 [cm-1]
     freq (    6) =      14.970707 [THz] =     499.369017 [cm-1]
 **************************************************************************

     Mode symmetry, C_3v (3m)   point group:

     freq (  1 -  2) =        113.7  [cm-1]   --> E    L_3           
     freq (  3 -  3) =        227.5  [cm-1]   --> A_1  L_1           
     freq (  4 -  4) =        489.9  [cm-1]   --> A_1  L_1           
     freq (  5 -  6) =        499.4  [cm-1]   --> E    L_3           

     Calculation of q =    0.5000000  -0.5000000   0.5000000

   Info: using nr1, nr2, nr3 values from input

   Info: using nr1, nr2, nr3 values from input

     Parallelization info
     --------------------
     sticks:   dense  smooth     PW     G-vecs:    dense   smooth      PW
     Min          66      66     27                  722      722     186
     Max          67      67     28                  724      724     189
     Sum         265     265    109                 2891     2891     749



     bravais-lattice index     =            2
     lattice parameter (alat)  =      10.3940  a.u.
     unit-cell volume          =     280.7296 (a.u.)^3
     number of atoms/cell      =            2
     number of atomic types    =            1
     number of electrons       =         8.00
     number of Kohn-Sham states=            4
     kinetic-energy cutoff     =      18.0000  Ry
     charge density cutoff     =      72.0000  Ry
     Exchange-correlation      = SLA  PW   PBE  PBE ( 1  4  3  4 0 0)

     celldm(1)=  10.394000  celldm(2)=   0.000000  celldm(3)=   0.000000
     celldm(4)=   0.000000  celldm(5)=   0.000000  celldm(6)=   0.000000

     crystal axes: (cart. coord. in units of alat)
               a(1) = (  -0.500000   0.000000   0.500000 )  
               a(2) = (   0.000000   0.500000   0.500000 )  
               a(3) = (  -0.500000   0.500000   0.000000 )  

     reciprocal axes: (cart. coord. in units 2 pi/alat)
               b(1) = ( -1.000000 -1.000000  1.000000 )  
               b(2) = (  1.000000  1.000000  1.000000 )  
               b(3) = ( -1.000000  1.000000 -1.000000 )  


     PseudoPot. # 1 for Si read from file:
     /home/max/quantum_espresso/qe-6.1/pseudo/si_pbe_v1.uspp.F.UPF.txt
     MD5 check sum: a056efeee980c13900f22a371efd63c1
     Pseudo is Ultrasoft + core correction, Zval =  4.0
     Generated by new atomic code, or converted to UPF format
     Using radial grid of  899 points,  6 beta functions with: 
                l(1) =   0
                l(2) =   0
                l(3) =   1
                l(4) =   1
                l(5) =   2
                l(6) =   2
     Q(r) pseudized with  8 coefficients,  rinner =    0.900   0.900   0.900
                                                       0.900   0.900

     atomic species   valence    mass     pseudopotential
        Si             4.00    28.08600     Si( 1.00)

     48 Sym. Ops., with inversion, found



   Cartesian axes

     site n.     atom                  positions (alat units)
         1           Si  tau(   1) = (   0.0000000   0.0000000   0.0000000  )
         2           Si  tau(   2) = (   0.2500000   0.2500000   0.2500000  )

     number of k points=    60
                       cart. coord. in units 2pi/alat
        k(    1) = (  -0.1250000   0.1250000   0.1250000), wk =   0.0468750
        k(    2) = (   0.3750000  -0.3750000   0.6250000), wk =   0.0000000
        k(    3) = (  -0.3750000   0.3750000  -0.1250000), wk =   0.0468750
        k(    4) = (   0.1250000  -0.1250000   0.3750000), wk =   0.0000000
        k(    5) = (   0.3750000  -0.3750000   0.6250000), wk =   0.0468750
        k(    6) = (   0.8750000  -0.8750000   1.1250000), wk =   0.0000000
        k(    7) = (   0.1250000  -0.1250000   0.3750000), wk =   0.0468750
        k(    8) = (   0.6250000  -0.6250000   0.8750000), wk =   0.0000000
        k(    9) = (  -0.1250000   0.6250000   0.1250000), wk =   0.0937500
        k(   10) = (   0.3750000   0.1250000   0.6250000), wk =   0.0000000
        k(   11) = (   0.6250000  -0.1250000   0.8750000), wk =   0.0937500
        k(   12) = (   1.1250000  -0.6250000   1.3750000), wk =   0.0000000
        k(   13) = (   0.3750000   0.1250000   0.6250000), wk =   0.0937500
        k(   14) = (   0.8750000  -0.3750000   1.1250000), wk =   0.0000000
        k(   15) = (  -0.1250000  -0.8750000   0.1250000), wk =   0.0937500
        k(   16) = (   0.3750000  -1.3750000   0.6250000), wk =   0.0000000
        k(   17) = (  -0.3750000   0.3750000   0.3750000), wk =   0.0468750
        k(   18) = (   0.1250000  -0.1250000   0.8750000), wk =   0.0000000
        k(   19) = (   0.3750000  -0.3750000   1.1250000), wk =   0.0468750
        k(   20) = (   0.8750000  -0.8750000   1.6250000), wk =   0.0000000
        k(   21) = (   0.1250000  -0.1250000   0.1250000), wk =   0.0156250
        k(   22) = (   0.6250000  -0.6250000   0.6250000), wk =   0.0000000
        k(   23) = (  -0.3750000  -0.3750000  -0.1250000), wk =   0.0937500
        k(   24) = (   0.1250000  -0.8750000   0.3750000), wk =   0.0000000
        k(   25) = (  -0.1250000  -0.3750000   0.3750000), wk =   0.0468750
        k(   26) = (   0.3750000  -0.8750000   0.8750000), wk =   0.0000000
        k(   27) = (   0.3750000   0.3750000   0.6250000), wk =   0.0937500
        k(   28) = (   0.8750000  -0.1250000   1.1250000), wk =   0.0000000
        k(   29) = (   0.6250000   0.3750000  -0.3750000), wk =   0.0468750
        k(   30) = (   1.1250000  -0.1250000   0.1250000), wk =   0.0000000
        k(   31) = (   0.1250000   0.1250000   0.3750000), wk =   0.0937500
        k(   32) = (   0.6250000  -0.3750000   0.8750000), wk =   0.0000000
        k(   33) = (   0.3750000   0.1250000  -0.1250000), wk =   0.0468750
        k(   34) = (   0.8750000  -0.3750000   0.3750000), wk =   0.0000000
        k(   35) = (  -0.1250000  -0.6250000  -0.1250000), wk =   0.0468750
        k(   36) = (   0.3750000  -1.1250000   0.3750000), wk =   0.0000000
        k(   37) = (   0.1250000  -0.6250000   0.1250000), wk =   0.0468750
        k(   38) = (   0.6250000  -1.1250000   0.6250000), wk =   0.0000000
        k(   39) = (   0.6250000   0.1250000   0.8750000), wk =   0.0937500
        k(   40) = (   1.1250000  -0.3750000   1.3750000), wk =   0.0000000
        k(   41) = (  -0.8750000   0.1250000   0.6250000), wk =   0.0937500
        k(   42) = (  -0.3750000  -0.3750000   1.1250000), wk =   0.0000000
        k(   43) = (   0.8750000   0.1250000  -0.6250000), wk =   0.0937500
        k(   44) = (   1.3750000  -0.3750000  -0.1250000), wk =   0.0000000
        k(   45) = (   0.3750000  -0.1250000   0.6250000), wk =   0.0937500
        k(   46) = (   0.8750000  -0.6250000   1.1250000), wk =   0.0000000
        k(   47) = (  -0.6250000  -0.1250000   0.3750000), wk =   0.0937500
        k(   48) = (  -0.1250000  -0.6250000   0.8750000), wk =   0.0000000
        k(   49) = (   0.6250000  -0.1250000  -0.3750000), wk =   0.0937500
        k(   50) = (   1.1250000  -0.6250000   0.1250000), wk =   0.0000000
        k(   51) = (  -0.1250000   0.8750000  -0.1250000), wk =   0.0468750
        k(   52) = (   0.3750000   0.3750000   0.3750000), wk =   0.0000000
        k(   53) = (   0.1250000   0.8750000   0.1250000), wk =   0.0468750
        k(   54) = (   0.6250000   0.3750000   0.6250000), wk =   0.0000000
        k(   55) = (   0.3750000  -0.3750000   0.3750000), wk =   0.0156250
        k(   56) = (   0.8750000  -0.8750000   0.8750000), wk =   0.0000000
        k(   57) = (   0.3750000   0.3750000   1.1250000), wk =   0.0937500
        k(   58) = (   0.8750000  -0.1250000   1.6250000), wk =   0.0000000
        k(   59) = (   1.1250000   0.3750000  -0.3750000), wk =   0.0468750
        k(   60) = (   1.6250000  -0.1250000   0.1250000), wk =   0.0000000

     Dense  grid:     2891 G-vectors     FFT dimensions: (  20,  20,  20)

     Estimated max dynamical RAM per process >       0.33MB

     Estimated total allocated dynamical RAM >       1.33MB

     Check: negative/imaginary core charge=   -0.000006    0.000000

     The potential is recalculated from file :
     ./_ph0/silicon.10.394.save/charge-density.dat

     Starting wfc are    8 atomic wfcs

     Band Structure Calculation
     Davidson diagonalization with overlap

     ethr =  1.25E-10,  avg # of iterations = 11.7

     total cpu time spent up to now is        1.5 secs

     End of band structure calculation

          k =-0.1250 0.1250 0.1250 (   347 PWs)   bands (ev):

    -5.6942   4.2169   5.5270   5.5270

          k = 0.3750-0.3750 0.6250 (   364 PWs)   bands (ev):

    -3.5747  -0.7809   3.5864   4.2942

          k =-0.3750 0.3750-0.1250 (   356 PWs)   bands (ev):

    -4.6862   1.2536   3.5761   5.0498

          k = 0.1250-0.1250 0.3750 (   358 PWs)   bands (ev):

    -5.1757   2.6060   4.5388   4.5923

          k = 0.3750-0.3750 0.6250 (   364 PWs)   bands (ev):

    -3.5747  -0.7809   3.5864   4.2942

          k = 0.8750-0.8750 1.1250 (   347 PWs)   bands (ev):

    -5.6942   4.2169   5.5270   5.5270

          k = 0.1250-0.1250 0.3750 (   358 PWs)   bands (ev):

    -5.1757   2.6060   4.5388   4.5923

          k = 0.6250-0.6250 0.8750 (   356 PWs)   bands (ev):

    -4.6862   1.2536   3.5761   5.0498

          k =-0.1250 0.6250 0.1250 (   357 PWs)   bands (ev):

    -4.1625   0.8999   3.2381   3.6790

          k = 0.3750 0.1250 0.6250 (   362 PWs)   bands (ev):

    -3.7570   0.0535   2.6057   3.9505

          k = 0.6250-0.1250 0.8750 (   368 PWs)   bands (ev):

    -2.5581  -1.0351   1.9197   2.9712

          k = 1.1250-0.6250 1.3750 (   356 PWs)   bands (ev):

    -4.6862   1.2536   3.5761   5.0498

          k = 0.3750 0.1250 0.6250 (   362 PWs)   bands (ev):

    -3.7570   0.0535   2.6057   3.9505

          k = 0.8750-0.3750 1.1250 (   357 PWs)   bands (ev):

    -4.1625   0.8999   3.2381   3.6790

          k =-0.1250-0.8750 0.1250 (   362 PWs)   bands (ev):

    -2.7171  -0.9417   2.5137   3.2192

          k = 0.3750-1.3750 0.6250 (   364 PWs)   bands (ev):

    -3.5747  -0.7809   3.5864   4.2942

          k =-0.3750 0.3750 0.3750 (   359 PWs)   bands (ev):

    -4.2638  -0.0048   4.7484   4.7484

          k = 0.1250-0.1250 0.8750 (   362 PWs)   bands (ev):

    -2.7171  -0.9417   2.5137   3.2192

          k = 0.3750-0.3750 1.1250 (   365 PWs)   bands (ev):

    -3.0871  -0.7201   1.9693   3.9845

          k = 0.8750-0.8750 1.6250 (   357 PWs)   bands (ev):

    -4.1625   0.8999   3.2381   3.6790

          k = 0.1250-0.1250 0.1250 (   347 PWs)   bands (ev):

    -5.6942   4.2169   5.5270   5.5270

          k = 0.6250-0.6250 0.6250 (   359 PWs)   bands (ev):

    -4.2638  -0.0048   4.7484   4.7484

          k =-0.3750-0.3750-0.1250 (   356 PWs)   bands (ev):

    -4.6862   1.2536   3.5761   5.0498

          k = 0.1250-0.8750 0.3750 (   368 PWs)   bands (ev):

    -2.5581  -1.0351   1.9197   2.9712

          k =-0.1250-0.3750 0.3750 (   356 PWs)   bands (ev):

    -4.6862   1.2536   3.5761   5.0498

          k = 0.3750-0.8750 0.8750 (   357 PWs)   bands (ev):

    -4.1625   0.8999   3.2381   3.6790

          k = 0.3750 0.3750 0.6250 (   364 PWs)   bands (ev):

    -3.5747  -0.7809   3.5864   4.2942

          k = 0.8750-0.1250 1.1250 (   362 PWs)   bands (ev):

    -2.7171  -0.9417   2.5137   3.2192

          k = 0.6250 0.3750-0.3750 (   364 PWs)   bands (ev):

    -3.5747  -0.7809   3.5864   4.2942

          k = 1.1250-0.1250 0.1250 (   362 PWs)   bands (ev):

    -2.7171  -0.9417   2.5137   3.2192

          k = 0.1250 0.1250 0.3750 (   358 PWs)   bands (ev):

    -5.1757   2.6060   4.5388   4.5923

          k = 0.6250-0.3750 0.8750 (   362 PWs)   bands (ev):

    -3.7570   0.0535   2.6057   3.9505

          k = 0.3750 0.1250-0.1250 (   358 PWs)   bands (ev):

    -5.1757   2.6060   4.5388   4.5923

          k = 0.8750-0.3750 0.3750 (   365 PWs)   bands (ev):

    -3.0871  -0.7201   1.9693   3.9845

          k =-0.1250-0.6250-0.1250 (   357 PWs)   bands (ev):

    -4.1625   0.8999   3.2381   3.6790

          k = 0.3750-1.1250 0.3750 (   365 PWs)   bands (ev):

    -3.0871  -0.7201   1.9693   3.9845

          k = 0.1250-0.6250 0.1250 (   357 PWs)   bands (ev):

    -4.1625   0.8999   3.2381   3.6790

          k = 0.6250-1.1250 0.6250 (   356 PWs)   bands (ev):

    -4.6862   1.2536   3.5761   5.0498

          k = 0.6250 0.1250 0.8750 (   368 PWs)   bands (ev):

    -2.5581  -1.0351   1.9197   2.9712

          k = 1.1250-0.3750 1.3750 (   362 PWs)   bands (ev):

    -3.7570   0.0535   2.6057   3.9505

          k =-0.8750 0.1250 0.6250 (   368 PWs)   bands (ev):

    -2.5581  -1.0351   1.9197   2.9712

          k =-0.3750-0.3750 1.1250 (   365 PWs)   bands (ev):

    -3.0871  -0.7201   1.9693   3.9845

          k = 0.8750 0.1250-0.6250 (   368 PWs)   bands (ev):

    -2.5581  -1.0351   1.9197   2.9712

          k = 1.3750-0.3750-0.1250 (   362 PWs)   bands (ev):

    -3.7570   0.0535   2.6057   3.9505

          k = 0.3750-0.1250 0.6250 (   362 PWs)   bands (ev):

    -3.7570   0.0535   2.6057   3.9505

          k = 0.8750-0.6250 1.1250 (   358 PWs)   bands (ev):

    -5.1757   2.6060   4.5388   4.5923

          k =-0.6250-0.1250 0.3750 (   362 PWs)   bands (ev):

    -3.7570   0.0535   2.6057   3.9505

          k =-0.1250-0.6250 0.8750 (   368 PWs)   bands (ev):

    -2.5581  -1.0351   1.9197   2.9712

          k = 0.6250-0.1250-0.3750 (   362 PWs)   bands (ev):

    -3.7570   0.0535   2.6057   3.9505

          k = 1.1250-0.6250 0.1250 (   368 PWs)   bands (ev):

    -2.5581  -1.0351   1.9197   2.9712

          k =-0.1250 0.8750-0.1250 (   362 PWs)   bands (ev):

    -2.7171  -0.9417   2.5137   3.2192

          k = 0.3750 0.3750 0.3750 (   359 PWs)   bands (ev):

    -4.2638  -0.0048   4.7484   4.7484

          k = 0.1250 0.8750 0.1250 (   362 PWs)   bands (ev):

    -2.7171  -0.9417   2.5137   3.2192

          k = 0.6250 0.3750 0.6250 (   364 PWs)   bands (ev):

    -3.5747  -0.7809   3.5864   4.2942

          k = 0.3750-0.3750 0.3750 (   359 PWs)   bands (ev):

    -4.2638  -0.0048   4.7484   4.7484

          k = 0.8750-0.8750 0.8750 (   347 PWs)   bands (ev):

    -5.6942   4.2169   5.5270   5.5270

          k = 0.3750 0.3750 1.1250 (   365 PWs)   bands (ev):

    -3.0871  -0.7201   1.9693   3.9845

          k = 0.8750-0.1250 1.6250 (   368 PWs)   bands (ev):

    -2.5581  -1.0351   1.9197   2.9712

          k = 1.1250 0.3750-0.3750 (   365 PWs)   bands (ev):

    -3.0871  -0.7201   1.9693   3.9845

          k = 1.6250-0.1250 0.1250 (   358 PWs)   bands (ev):

    -5.1757   2.6060   4.5388   4.5923

     highest occupied level (ev):     5.5270

     Writing output data file silicon.10.394.save

                                                                                

     bravais-lattice index     =            2
     lattice parameter (alat)  =      10.3940  a.u.
     unit-cell volume          =     280.7296 (a.u.)^3
     number of atoms/cell      =            2
     number of atomic types    =            1
     kinetic-energy cut-off    =      18.0000  Ry
     charge density cut-off    =      72.0000  Ry
     convergence threshold     =      1.0E-12
     beta                      =       0.7000
     number of iterations used =            4
     Exchange-correlation      = SLA  PW   PBE  PBE ( 1  4  3  4 0 0)


     celldm(1)=   10.39400  celldm(2)=    0.00000  celldm(3)=    0.00000
     celldm(4)=    0.00000  celldm(5)=    0.00000  celldm(6)=    0.00000

     crystal axes: (cart. coord. in units of alat)
               a(1) = ( -0.5000  0.0000  0.5000 )  
               a(2) = (  0.0000  0.5000  0.5000 )  
               a(3) = ( -0.5000  0.5000  0.0000 )  

     reciprocal axes: (cart. coord. in units 2 pi/alat)
               b(1) = ( -1.0000 -1.0000  1.0000 )  
               b(2) = (  1.0000  1.0000  1.0000 )  
               b(3) = ( -1.0000  1.0000 -1.0000 )  


     Atoms inside the unit cell: 

     Cartesian axes

     site n.  atom      mass           positions (alat units)
        1     Si  28.0860   tau(    1) = (    0.00000    0.00000    0.00000  )
        2     Si  28.0860   tau(    2) = (    0.25000    0.25000    0.25000  )

     Computing dynamical matrix for 
                    q = (   0.5000000  -0.5000000   0.5000000 )

     13 Sym.Ops. (with q -> -q+G )


     G cutoff =  197.0326  (    722 G-vectors)     FFT grid: ( 20, 20, 20)
     number of k points=    60

     PseudoPot. # 1 for Si read from file:
     /home/max/quantum_espresso/qe-6.1/pseudo/si_pbe_v1.uspp.F.UPF.txt
     MD5 check sum: a056efeee980c13900f22a371efd63c1
     Pseudo is Ultrasoft + core correction, Zval =  4.0
     Generated by new atomic code, or converted to UPF format
     Using radial grid of  899 points,  6 beta functions with: 
                l(1) =   0
                l(2) =   0
                l(3) =   1
                l(4) =   1
                l(5) =   2
                l(6) =   2
     Q(r) pseudized with  8 coefficients,  rinner =    0.900   0.900   0.900
                                                       0.900   0.900


     Atomic displacements:
     There are   4 irreducible representations

     Representation     1      1 modes -  To be done

     Representation     2      1 modes -  To be done

     Representation     3      2 modes -  To be done

     Representation     4      2 modes -  To be done



     Alpha used in Ewald sum =   0.7000
     PHONON       :    15.61s CPU        16.52s WALL



     Representation #  1 mode #   1

     Self-consistent Calculation

      iter #   1 total cpu time :    16.8 secs   av.it.:   4.8
      thresh= 1.000E-02 alpha_mix =  0.700 |ddv_scf|^2 =  2.434E-05

      iter #   2 total cpu time :    16.9 secs   av.it.:   8.4
      thresh= 4.934E-04 alpha_mix =  0.700 |ddv_scf|^2 =  2.220E-05

      iter #   3 total cpu time :    17.1 secs   av.it.:   7.5
      thresh= 4.712E-04 alpha_mix =  0.700 |ddv_scf|^2 =  3.788E-08

      iter #   4 total cpu time :    17.2 secs   av.it.:   7.6
      thresh= 1.946E-05 alpha_mix =  0.700 |ddv_scf|^2 =  1.375E-10

      iter #   5 total cpu time :    17.3 secs   av.it.:   7.9
      thresh= 1.173E-06 alpha_mix =  0.700 |ddv_scf|^2 =  4.161E-12

      iter #   6 total cpu time :    17.5 secs   av.it.:   7.7
      thresh= 2.040E-07 alpha_mix =  0.700 |ddv_scf|^2 =  8.491E-14

     End of self-consistent calculation

     Convergence has been achieved 


     Representation #  2 mode #   2

     Self-consistent Calculation

      iter #   1 total cpu time :    17.6 secs   av.it.:   5.6
      thresh= 1.000E-02 alpha_mix =  0.700 |ddv_scf|^2 =  3.402E-04

      iter #   2 total cpu time :    17.8 secs   av.it.:   8.3
      thresh= 1.844E-03 alpha_mix =  0.700 |ddv_scf|^2 =  1.051E-03

      iter #   3 total cpu time :    17.9 secs   av.it.:   7.1
      thresh= 3.242E-03 alpha_mix =  0.700 |ddv_scf|^2 =  1.405E-07

      iter #   4 total cpu time :    18.0 secs   av.it.:   8.2
      thresh= 3.749E-05 alpha_mix =  0.700 |ddv_scf|^2 =  9.567E-09

      iter #   5 total cpu time :    18.2 secs   av.it.:   8.4
      thresh= 9.781E-06 alpha_mix =  0.700 |ddv_scf|^2 =  1.635E-10

      iter #   6 total cpu time :    18.3 secs   av.it.:   8.1
      thresh= 1.279E-06 alpha_mix =  0.700 |ddv_scf|^2 =  4.397E-12

      iter #   7 total cpu time :    18.4 secs   av.it.:   7.4
      thresh= 2.097E-07 alpha_mix =  0.700 |ddv_scf|^2 =  7.075E-15

     End of self-consistent calculation

     Convergence has been achieved 


     Representation #  3 modes #   3  4

     Self-consistent Calculation

      iter #   1 total cpu time :    18.8 secs   av.it.:   4.7
      thresh= 1.000E-02 alpha_mix =  0.700 |ddv_scf|^2 =  3.403E-07

      iter #   2 total cpu time :    19.1 secs   av.it.:   9.0
      thresh= 5.833E-05 alpha_mix =  0.700 |ddv_scf|^2 =  2.930E-08

      iter #   3 total cpu time :    19.4 secs   av.it.:   8.3
      thresh= 1.712E-05 alpha_mix =  0.700 |ddv_scf|^2 =  5.112E-10

      iter #   4 total cpu time :    19.7 secs   av.it.:   8.9
      thresh= 2.261E-06 alpha_mix =  0.700 |ddv_scf|^2 =  6.430E-12

      iter #   5 total cpu time :    20.0 secs   av.it.:   8.7
      thresh= 2.536E-07 alpha_mix =  0.700 |ddv_scf|^2 =  3.567E-14

     End of self-consistent calculation

     Convergence has been achieved 


     Representation #  4 modes #   5  6

     Self-consistent Calculation

      iter #   1 total cpu time :    20.2 secs   av.it.:   4.9
      thresh= 1.000E-02 alpha_mix =  0.700 |ddv_scf|^2 =  9.409E-07

      iter #   2 total cpu time :    20.5 secs   av.it.:   9.5
      thresh= 9.700E-05 alpha_mix =  0.700 |ddv_scf|^2 =  7.478E-08

      iter #   3 total cpu time :    21.0 secs   av.it.:   9.3
      thresh= 2.735E-05 alpha_mix =  0.700 |ddv_scf|^2 =  4.450E-09

      iter #   4 total cpu time :    21.3 secs   av.it.:   8.5
      thresh= 6.671E-06 alpha_mix =  0.700 |ddv_scf|^2 =  6.485E-12

      iter #   5 total cpu time :    21.6 secs   av.it.:   8.8
      thresh= 2.546E-07 alpha_mix =  0.700 |ddv_scf|^2 =  2.536E-14

     End of self-consistent calculation

     Convergence has been achieved 

     Number of q in the star =    4
     List of q in the star:
          1   0.500000000  -0.500000000   0.500000000
          2   0.500000000   0.500000000   0.500000000
          3  -0.500000000   0.500000000   0.500000000
          4   0.500000000   0.500000000  -0.500000000

     Diagonalizing the dynamical matrix

     q = (    0.500000000  -0.500000000   0.500000000 ) 

 **************************************************************************
     freq (    1) =       5.086035 [THz] =     169.651857 [cm-1]
     freq (    2) =       5.086035 [THz] =     169.651857 [cm-1]
     freq (    3) =      11.909663 [THz] =     397.263606 [cm-1]
     freq (    4) =      12.177470 [THz] =     406.196692 [cm-1]
     freq (    5) =      14.739200 [THz] =     491.646802 [cm-1]
     freq (    6) =      14.739200 [THz] =     491.646802 [cm-1]
 **************************************************************************

     Calculation of q =    0.0000000   0.5000000   0.0000000

   Info: using nr1, nr2, nr3 values from input

   Info: using nr1, nr2, nr3 values from input

     Parallelization info
     --------------------
     sticks:   dense  smooth     PW     G-vecs:    dense   smooth      PW
     Min          66      66     27                  722      722     181
     Max          67      67     28                  724      724     182
     Sum         265     265    109                 2891     2891     725



     bravais-lattice index     =            2
     lattice parameter (alat)  =      10.3940  a.u.
     unit-cell volume          =     280.7296 (a.u.)^3
     number of atoms/cell      =            2
     number of atomic types    =            1
     number of electrons       =         8.00
     number of Kohn-Sham states=            4
     kinetic-energy cutoff     =      18.0000  Ry
     charge density cutoff     =      72.0000  Ry
     Exchange-correlation      = SLA  PW   PBE  PBE ( 1  4  3  4 0 0)

     celldm(1)=  10.394000  celldm(2)=   0.000000  celldm(3)=   0.000000
     celldm(4)=   0.000000  celldm(5)=   0.000000  celldm(6)=   0.000000

     crystal axes: (cart. coord. in units of alat)
               a(1) = (  -0.500000   0.000000   0.500000 )  
               a(2) = (   0.000000   0.500000   0.500000 )  
               a(3) = (  -0.500000   0.500000   0.000000 )  

     reciprocal axes: (cart. coord. in units 2 pi/alat)
               b(1) = ( -1.000000 -1.000000  1.000000 )  
               b(2) = (  1.000000  1.000000  1.000000 )  
               b(3) = ( -1.000000  1.000000 -1.000000 )  


     PseudoPot. # 1 for Si read from file:
     /home/max/quantum_espresso/qe-6.1/pseudo/si_pbe_v1.uspp.F.UPF.txt
     MD5 check sum: a056efeee980c13900f22a371efd63c1
     Pseudo is Ultrasoft + core correction, Zval =  4.0
     Generated by new atomic code, or converted to UPF format
     Using radial grid of  899 points,  6 beta functions with: 
                l(1) =   0
                l(2) =   0
                l(3) =   1
                l(4) =   1
                l(5) =   2
                l(6) =   2
     Q(r) pseudized with  8 coefficients,  rinner =    0.900   0.900   0.900
                                                       0.900   0.900

     atomic species   valence    mass     pseudopotential
        Si             4.00    28.08600     Si( 1.00)

     48 Sym. Ops., with inversion, found



   Cartesian axes

     site n.     atom                  positions (alat units)
         1           Si  tau(   1) = (   0.0000000   0.0000000   0.0000000  )
         2           Si  tau(   2) = (   0.2500000   0.2500000   0.2500000  )

     number of k points=    80
                       cart. coord. in units 2pi/alat
        k(    1) = (  -0.1250000   0.1250000   0.1250000), wk =   0.0312500
        k(    2) = (  -0.1250000   0.6250000   0.1250000), wk =   0.0000000
        k(    3) = (  -0.3750000   0.3750000  -0.1250000), wk =   0.0625000
        k(    4) = (  -0.3750000   0.8750000  -0.1250000), wk =   0.0000000
        k(    5) = (   0.3750000  -0.3750000   0.6250000), wk =   0.0625000
        k(    6) = (   0.3750000   0.1250000   0.6250000), wk =   0.0000000
        k(    7) = (   0.1250000  -0.1250000   0.3750000), wk =   0.0625000
        k(    8) = (   0.1250000   0.3750000   0.3750000), wk =   0.0000000
        k(    9) = (  -0.1250000   0.6250000   0.1250000), wk =   0.0312500
        k(   10) = (  -0.1250000   1.1250000   0.1250000), wk =   0.0000000
        k(   11) = (   0.6250000  -0.1250000   0.8750000), wk =   0.0625000
        k(   12) = (   0.6250000   0.3750000   0.8750000), wk =   0.0000000
        k(   13) = (   0.3750000   0.1250000   0.6250000), wk =   0.0625000
        k(   14) = (   0.3750000   0.6250000   0.6250000), wk =   0.0000000
        k(   15) = (  -0.1250000  -0.8750000   0.1250000), wk =   0.0312500
        k(   16) = (  -0.1250000  -0.3750000   0.1250000), wk =   0.0000000
        k(   17) = (  -0.3750000   0.3750000   0.3750000), wk =   0.0312500
        k(   18) = (  -0.3750000   0.8750000   0.3750000), wk =   0.0000000
        k(   19) = (   0.3750000  -0.3750000   1.1250000), wk =   0.0625000
        k(   20) = (   0.3750000   0.1250000   1.1250000), wk =   0.0000000
        k(   21) = (  -0.1250000  -0.1250000   0.1250000), wk =   0.0312500
        k(   22) = (  -0.1250000   0.3750000   0.1250000), wk =   0.0000000
        k(   23) = (   0.1250000  -0.3750000   0.3750000), wk =   0.0625000
        k(   24) = (   0.1250000   0.1250000   0.3750000), wk =   0.0000000
        k(   25) = (   0.3750000  -0.1250000   0.3750000), wk =   0.0312500
        k(   26) = (   0.3750000   0.3750000   0.3750000), wk =   0.0000000
        k(   27) = (   0.3750000   0.1250000   0.3750000), wk =   0.0312500
        k(   28) = (   0.3750000   0.6250000   0.3750000), wk =   0.0000000
        k(   29) = (  -0.6250000   0.3750000  -0.3750000), wk =   0.0625000
        k(   30) = (  -0.6250000   0.8750000  -0.3750000), wk =   0.0000000
        k(   31) = (  -0.3750000   0.6250000  -0.3750000), wk =   0.0312500
        k(   32) = (  -0.3750000   1.1250000  -0.3750000), wk =   0.0000000
        k(   33) = (  -0.3750000  -0.6250000  -0.3750000), wk =   0.0312500
        k(   34) = (  -0.3750000  -0.1250000  -0.3750000), wk =   0.0000000
        k(   35) = (  -0.3750000   0.1250000  -0.1250000), wk =   0.0625000
        k(   36) = (  -0.3750000   0.6250000  -0.1250000), wk =   0.0000000
        k(   37) = (  -0.1250000   0.3750000  -0.1250000), wk =   0.0312500
        k(   38) = (  -0.1250000   0.8750000  -0.1250000), wk =   0.0000000
        k(   39) = (  -0.1250000  -0.3750000  -0.1250000), wk =   0.0312500
        k(   40) = (  -0.1250000   0.1250000  -0.1250000), wk =   0.0000000
        k(   41) = (  -0.1250000  -0.6250000   0.1250000), wk =   0.0312500
        k(   42) = (  -0.1250000  -0.1250000   0.1250000), wk =   0.0000000
        k(   43) = (   0.6250000  -0.1250000  -0.1250000), wk =   0.0625000
        k(   44) = (   0.6250000   0.3750000  -0.1250000), wk =   0.0000000
        k(   45) = (   0.6250000   0.1250000   0.1250000), wk =   0.0625000
        k(   46) = (   0.6250000   0.6250000   0.1250000), wk =   0.0000000
        k(   47) = (  -0.8750000   0.1250000  -0.6250000), wk =   0.0625000
        k(   48) = (  -0.8750000   0.6250000  -0.6250000), wk =   0.0000000
        k(   49) = (  -0.1250000   0.6250000  -0.8750000), wk =   0.0625000
        k(   50) = (  -0.1250000   1.1250000  -0.8750000), wk =   0.0000000
        k(   51) = (  -0.1250000   0.8750000  -0.6250000), wk =   0.0625000
        k(   52) = (  -0.1250000   1.3750000  -0.6250000), wk =   0.0000000
        k(   53) = (  -0.1250000  -0.8750000  -0.6250000), wk =   0.0625000
        k(   54) = (  -0.1250000  -0.3750000  -0.6250000), wk =   0.0000000
        k(   55) = (   0.8750000  -0.6250000   0.1250000), wk =   0.0625000
        k(   56) = (   0.8750000  -0.1250000   0.1250000), wk =   0.0000000
        k(   57) = (  -0.6250000  -0.1250000  -0.3750000), wk =   0.0625000
        k(   58) = (  -0.6250000   0.3750000  -0.3750000), wk =   0.0000000
        k(   59) = (   0.1250000   0.3750000  -0.6250000), wk =   0.0625000
        k(   60) = (   0.1250000   0.8750000  -0.6250000), wk =   0.0000000
        k(   61) = (   0.1250000   0.6250000  -0.3750000), wk =   0.0625000
        k(   62) = (   0.1250000   1.1250000  -0.3750000), wk =   0.0000000
        k(   63) = (   0.1250000  -0.6250000  -0.3750000), wk =   0.0625000
        k(   64) = (   0.1250000  -0.1250000  -0.3750000), wk =   0.0000000
        k(   65) = (   0.6250000  -0.3750000  -0.1250000), wk =   0.0625000
        k(   66) = (   0.6250000   0.1250000  -0.1250000), wk =   0.0000000
        k(   67) = (  -0.1250000   0.8750000   0.1250000), wk =   0.0312500
        k(   68) = (  -0.1250000   1.3750000   0.1250000), wk =   0.0000000
        k(   69) = (  -0.8750000  -0.1250000  -0.1250000), wk =   0.0625000
        k(   70) = (  -0.8750000   0.3750000  -0.1250000), wk =   0.0000000
        k(   71) = (  -0.8750000   0.1250000   0.1250000), wk =   0.0625000
        k(   72) = (  -0.8750000   0.6250000   0.1250000), wk =   0.0000000
        k(   73) = (  -0.3750000  -0.3750000   0.3750000), wk =   0.0312500
        k(   74) = (  -0.3750000   0.1250000   0.3750000), wk =   0.0000000
        k(   75) = (  -1.1250000   0.3750000  -0.3750000), wk =   0.0625000
        k(   76) = (  -1.1250000   0.8750000  -0.3750000), wk =   0.0000000
        k(   77) = (  -0.3750000   1.1250000  -0.3750000), wk =   0.0312500
        k(   78) = (  -0.3750000   1.6250000  -0.3750000), wk =   0.0000000
        k(   79) = (  -0.3750000  -1.1250000  -0.3750000), wk =   0.0312500
        k(   80) = (  -0.3750000  -0.6250000  -0.3750000), wk =   0.0000000

     Dense  grid:     2891 G-vectors     FFT dimensions: (  20,  20,  20)

     Estimated max dynamical RAM per process >       0.33MB

     Estimated total allocated dynamical RAM >       1.33MB

     Check: negative/imaginary core charge=   -0.000006    0.000000

     The potential is recalculated from file :
     ./_ph0/silicon.10.394.save/charge-density.dat

     Starting wfc are    8 atomic wfcs

     Band Structure Calculation
     Davidson diagonalization with overlap

     ethr =  1.25E-10,  avg # of iterations = 11.7

     total cpu time spent up to now is        2.1 secs

     End of band structure calculation

          k =-0.1250 0.1250 0.1250 (   347 PWs)   bands (ev):

    -5.6942   4.2169   5.5270   5.5270

          k =-0.1250 0.6250 0.1250 (   357 PWs)   bands (ev):

    -4.1625   0.8999   3.2381   3.6790

          k =-0.3750 0.3750-0.1250 (   356 PWs)   bands (ev):

    -4.6862   1.2536   3.5761   5.0498

          k =-0.3750 0.8750-0.1250 (   368 PWs)   bands (ev):

    -2.5581  -1.0351   1.9197   2.9712

          k = 0.3750-0.3750 0.6250 (   364 PWs)   bands (ev):

    -3.5747  -0.7809   3.5864   4.2942

          k = 0.3750 0.1250 0.6250 (   362 PWs)   bands (ev):

    -3.7570   0.0535   2.6057   3.9505

          k = 0.1250-0.1250 0.3750 (   358 PWs)   bands (ev):

    -5.1757   2.6060   4.5388   4.5923

          k = 0.1250 0.3750 0.3750 (   356 PWs)   bands (ev):

    -4.6862   1.2536   3.5761   5.0498

          k =-0.1250 0.6250 0.1250 (   357 PWs)   bands (ev):

    -4.1625   0.8999   3.2381   3.6790

          k =-0.1250 1.1250 0.1250 (   362 PWs)   bands (ev):

    -2.7171  -0.9417   2.5137   3.2192

          k = 0.6250-0.1250 0.8750 (   368 PWs)   bands (ev):

    -2.5581  -1.0351   1.9197   2.9712

          k = 0.6250 0.3750 0.8750 (   362 PWs)   bands (ev):

    -3.7570   0.0535   2.6057   3.9505

          k = 0.3750 0.1250 0.6250 (   362 PWs)   bands (ev):

    -3.7570   0.0535   2.6057   3.9505

          k = 0.3750 0.6250 0.6250 (   364 PWs)   bands (ev):

    -3.5747  -0.7809   3.5864   4.2942

          k =-0.1250-0.8750 0.1250 (   362 PWs)   bands (ev):

    -2.7171  -0.9417   2.5137   3.2192

          k =-0.1250-0.3750 0.1250 (   358 PWs)   bands (ev):

    -5.1757   2.6060   4.5388   4.5923

          k =-0.3750 0.3750 0.3750 (   359 PWs)   bands (ev):

    -4.2638  -0.0048   4.7484   4.7484

          k =-0.3750 0.8750 0.3750 (   365 PWs)   bands (ev):

    -3.0871  -0.7201   1.9693   3.9845

          k = 0.3750-0.3750 1.1250 (   365 PWs)   bands (ev):

    -3.0871  -0.7201   1.9693   3.9845

          k = 0.3750 0.1250 1.1250 (   368 PWs)   bands (ev):

    -2.5581  -1.0351   1.9197   2.9712

          k =-0.1250-0.1250 0.1250 (   347 PWs)   bands (ev):

    -5.6942   4.2169   5.5270   5.5270

          k =-0.1250 0.3750 0.1250 (   358 PWs)   bands (ev):

    -5.1757   2.6060   4.5388   4.5923

          k = 0.1250-0.3750 0.3750 (   356 PWs)   bands (ev):

    -4.6862   1.2536   3.5761   5.0498

          k = 0.1250 0.1250 0.3750 (   358 PWs)   bands (ev):

    -5.1757   2.6060   4.5388   4.5923

          k = 0.3750-0.1250 0.3750 (   356 PWs)   bands (ev):

    -4.6862   1.2536   3.5761   5.0498

          k = 0.3750 0.3750 0.3750 (   359 PWs)   bands (ev):

    -4.2638  -0.0048   4.7484   4.7484

          k = 0.3750 0.1250 0.3750 (   356 PWs)   bands (ev):

    -4.6862   1.2536   3.5761   5.0498

          k = 0.3750 0.6250 0.3750 (   364 PWs)   bands (ev):

    -3.5747  -0.7809   3.5864   4.2942

          k =-0.6250 0.3750-0.3750 (   364 PWs)   bands (ev):

    -3.5747  -0.7809   3.5864   4.2942

          k =-0.6250 0.8750-0.3750 (   362 PWs)   bands (ev):

    -3.7570   0.0535   2.6057   3.9505

          k =-0.3750 0.6250-0.3750 (   364 PWs)   bands (ev):

    -3.5747  -0.7809   3.5864   4.2942

          k =-0.3750 1.1250-0.3750 (   365 PWs)   bands (ev):

    -3.0871  -0.7201   1.9693   3.9845

          k =-0.3750-0.6250-0.3750 (   364 PWs)   bands (ev):

    -3.5747  -0.7809   3.5864   4.2942

          k =-0.3750-0.1250-0.3750 (   356 PWs)   bands (ev):

    -4.6862   1.2536   3.5761   5.0498

          k =-0.3750 0.1250-0.1250 (   358 PWs)   bands (ev):

    -5.1757   2.6060   4.5388   4.5923

          k =-0.3750 0.6250-0.1250 (   362 PWs)   bands (ev):

    -3.7570   0.0535   2.6057   3.9505

          k =-0.1250 0.3750-0.1250 (   358 PWs)   bands (ev):

    -5.1757   2.6060   4.5388   4.5923

          k =-0.1250 0.8750-0.1250 (   362 PWs)   bands (ev):

    -2.7171  -0.9417   2.5137   3.2192

          k =-0.1250-0.3750-0.1250 (   358 PWs)   bands (ev):

    -5.1757   2.6060   4.5388   4.5923

          k =-0.1250 0.1250-0.1250 (   347 PWs)   bands (ev):

    -5.6942   4.2169   5.5270   5.5270

          k =-0.1250-0.6250 0.1250 (   357 PWs)   bands (ev):

    -4.1625   0.8999   3.2381   3.6790

          k =-0.1250-0.1250 0.1250 (   347 PWs)   bands (ev):

    -5.6942   4.2169   5.5270   5.5270

          k = 0.6250-0.1250-0.1250 (   357 PWs)   bands (ev):

    -4.1625   0.8999   3.2381   3.6790

          k = 0.6250 0.3750-0.1250 (   362 PWs)   bands (ev):

    -3.7570   0.0535   2.6057   3.9505

          k = 0.6250 0.1250 0.1250 (   357 PWs)   bands (ev):

    -4.1625   0.8999   3.2381   3.6790

          k = 0.6250 0.6250 0.1250 (   365 PWs)   bands (ev):

    -3.0871  -0.7201   1.9693   3.9845

          k =-0.8750 0.1250-0.6250 (   368 PWs)   bands (ev):

    -2.5581  -1.0351   1.9197   2.9712

          k =-0.8750 0.6250-0.6250 (   356 PWs)   bands (ev):

    -4.6862   1.2536   3.5761   5.0498

          k =-0.1250 0.6250-0.8750 (   368 PWs)   bands (ev):

    -2.5581  -1.0351   1.9197   2.9712

          k =-0.1250 1.1250-0.8750 (   362 PWs)   bands (ev):

    -2.7171  -0.9417   2.5137   3.2192

          k =-0.1250 0.8750-0.6250 (   368 PWs)   bands (ev):

    -2.5581  -1.0351   1.9197   2.9712

          k =-0.1250 1.3750-0.6250 (   365 PWs)   bands (ev):

    -3.0871  -0.7201   1.9693   3.9845

          k =-0.1250-0.8750-0.6250 (   368 PWs)   bands (ev):

    -2.5581  -1.0351   1.9197   2.9712

          k =-0.1250-0.3750-0.6250 (   362 PWs)   bands (ev):

    -3.7570   0.0535   2.6057   3.9505

          k = 0.8750-0.6250 0.1250 (   368 PWs)   bands (ev):

    -2.5581  -1.0351   1.9197   2.9712

          k = 0.8750-0.1250 0.1250 (   362 PWs)   bands (ev):

    -2.7171  -0.9417   2.5137   3.2192

          k =-0.6250-0.1250-0.3750 (   362 PWs)   bands (ev):

    -3.7570   0.0535   2.6057   3.9505

          k =-0.6250 0.3750-0.3750 (   364 PWs)   bands (ev):

    -3.5747  -0.7809   3.5864   4.2942

          k = 0.1250 0.3750-0.6250 (   362 PWs)   bands (ev):

    -3.7570   0.0535   2.6057   3.9505

          k = 0.1250 0.8750-0.6250 (   368 PWs)   bands (ev):

    -2.5581  -1.0351   1.9197   2.9712

          k = 0.1250 0.6250-0.3750 (   362 PWs)   bands (ev):

    -3.7570   0.0535   2.6057   3.9505

          k = 0.1250 1.1250-0.3750 (   368 PWs)   bands (ev):

    -2.5581  -1.0351   1.9197   2.9712

          k = 0.1250-0.6250-0.3750 (   362 PWs)   bands (ev):

    -3.7570   0.0535   2.6057   3.9505

          k = 0.1250-0.1250-0.3750 (   358 PWs)   bands (ev):

    -5.1757   2.6060   4.5388   4.5923

          k = 0.6250-0.3750-0.1250 (   362 PWs)   bands (ev):

    -3.7570   0.0535   2.6057   3.9505

          k = 0.6250 0.1250-0.1250 (   357 PWs)   bands (ev):

    -4.1625   0.8999   3.2381   3.6790

          k =-0.1250 0.8750 0.1250 (   362 PWs)   bands (ev):

    -2.7171  -0.9417   2.5137   3.2192

          k =-0.1250 1.3750 0.1250 (   357 PWs)   bands (ev):

    -4.1625   0.8999   3.2381   3.6790

          k =-0.8750-0.1250-0.1250 (   362 PWs)   bands (ev):

    -2.7171  -0.9417   2.5137   3.2192

          k =-0.8750 0.3750-0.1250 (   368 PWs)   bands (ev):

    -2.5581  -1.0351   1.9197   2.9712

          k =-0.8750 0.1250 0.1250 (   362 PWs)   bands (ev):

    -2.7171  -0.9417   2.5137   3.2192

          k =-0.8750 0.6250 0.1250 (   368 PWs)   bands (ev):

    -2.5581  -1.0351   1.9197   2.9712

          k =-0.3750-0.3750 0.3750 (   359 PWs)   bands (ev):

    -4.2638  -0.0048   4.7484   4.7484

          k =-0.3750 0.1250 0.3750 (   356 PWs)   bands (ev):

    -4.6862   1.2536   3.5761   5.0498

          k =-1.1250 0.3750-0.3750 (   365 PWs)   bands (ev):

    -3.0871  -0.7201   1.9693   3.9845

          k =-1.1250 0.8750-0.3750 (   357 PWs)   bands (ev):

    -4.1625   0.8999   3.2381   3.6790

          k =-0.3750 1.1250-0.3750 (   365 PWs)   bands (ev):

    -3.0871  -0.7201   1.9693   3.9845

          k =-0.3750 1.6250-0.3750 (   359 PWs)   bands (ev):

    -4.2638  -0.0048   4.7484   4.7484

          k =-0.3750-1.1250-0.3750 (   365 PWs)   bands (ev):

    -3.0871  -0.7201   1.9693   3.9845

          k =-0.3750-0.6250-0.3750 (   364 PWs)   bands (ev):

    -3.5747  -0.7809   3.5864   4.2942

     highest occupied level (ev):     5.5270

     Writing output data file silicon.10.394.save

                                                                                

     bravais-lattice index     =            2
     lattice parameter (alat)  =      10.3940  a.u.
     unit-cell volume          =     280.7296 (a.u.)^3
     number of atoms/cell      =            2
     number of atomic types    =            1
     kinetic-energy cut-off    =      18.0000  Ry
     charge density cut-off    =      72.0000  Ry
     convergence threshold     =      1.0E-12
     beta                      =       0.7000
     number of iterations used =            4
     Exchange-correlation      = SLA  PW   PBE  PBE ( 1  4  3  4 0 0)


     celldm(1)=   10.39400  celldm(2)=    0.00000  celldm(3)=    0.00000
     celldm(4)=    0.00000  celldm(5)=    0.00000  celldm(6)=    0.00000

     crystal axes: (cart. coord. in units of alat)
               a(1) = ( -0.5000  0.0000  0.5000 )  
               a(2) = (  0.0000  0.5000  0.5000 )  
               a(3) = ( -0.5000  0.5000  0.0000 )  

     reciprocal axes: (cart. coord. in units 2 pi/alat)
               b(1) = ( -1.0000 -1.0000  1.0000 )  
               b(2) = (  1.0000  1.0000  1.0000 )  
               b(3) = ( -1.0000  1.0000 -1.0000 )  


     Atoms inside the unit cell: 

     Cartesian axes

     site n.  atom      mass           positions (alat units)
        1     Si  28.0860   tau(    1) = (    0.00000    0.00000    0.00000  )
        2     Si  28.0860   tau(    2) = (    0.25000    0.25000    0.25000  )

     Computing dynamical matrix for 
                    q = (   0.0000000   0.5000000   0.0000000 )

      8 Sym.Ops. (no q -> -q+G )


     G cutoff =  197.0326  (    722 G-vectors)     FFT grid: ( 20, 20, 20)
     number of k points=    80

     PseudoPot. # 1 for Si read from file:
     /home/max/quantum_espresso/qe-6.1/pseudo/si_pbe_v1.uspp.F.UPF.txt
     MD5 check sum: a056efeee980c13900f22a371efd63c1
     Pseudo is Ultrasoft + core correction, Zval =  4.0
     Generated by new atomic code, or converted to UPF format
     Using radial grid of  899 points,  6 beta functions with: 
                l(1) =   0
                l(2) =   0
                l(3) =   1
                l(4) =   1
                l(5) =   2
                l(6) =   2
     Q(r) pseudized with  8 coefficients,  rinner =    0.900   0.900   0.900
                                                       0.900   0.900

     Mode symmetry, C_4v (4mm)  point group:


     Atomic displacements:
     There are   4 irreducible representations

     Representation     1      1 modes -A_1  G_1 D_1  To be done

     Representation     2      1 modes -B_2  G_4 D_2'  To be done

     Representation     3      2 modes -E    G_5 D_5  To be done

     Representation     4      2 modes -E    G_5 D_5  To be done



     Alpha used in Ewald sum =   0.7000
     PHONON       :    21.08s CPU        22.44s WALL



     Representation #  1 mode #   1

     Self-consistent Calculation

      iter #   1 total cpu time :    22.8 secs   av.it.:   5.8
      thresh= 1.000E-02 alpha_mix =  0.700 |ddv_scf|^2 =  2.927E-03

      iter #   2 total cpu time :    23.0 secs   av.it.:   7.7
      thresh= 5.410E-03 alpha_mix =  0.700 |ddv_scf|^2 =  3.884E-02

      iter #   3 total cpu time :    23.1 secs   av.it.:   6.7
      thresh= 1.000E-02 alpha_mix =  0.700 |ddv_scf|^2 =  1.533E-07

      iter #   4 total cpu time :    23.3 secs   av.it.:   8.2
      thresh= 3.915E-05 alpha_mix =  0.700 |ddv_scf|^2 =  1.559E-08

      iter #   5 total cpu time :    23.5 secs   av.it.:   7.8
      thresh= 1.249E-05 alpha_mix =  0.700 |ddv_scf|^2 =  6.943E-10

      iter #   6 total cpu time :    23.6 secs   av.it.:   7.9
      thresh= 2.635E-06 alpha_mix =  0.700 |ddv_scf|^2 =  2.541E-12

      iter #   7 total cpu time :    23.8 secs   av.it.:   8.0
      thresh= 1.594E-07 alpha_mix =  0.700 |ddv_scf|^2 =  4.413E-13

     End of self-consistent calculation

     Convergence has been achieved 


     Representation #  2 mode #   2

     Self-consistent Calculation

      iter #   1 total cpu time :    24.0 secs   av.it.:   4.9
      thresh= 1.000E-02 alpha_mix =  0.700 |ddv_scf|^2 =  5.129E-06

      iter #   2 total cpu time :    24.2 secs   av.it.:   8.7
      thresh= 2.265E-04 alpha_mix =  0.700 |ddv_scf|^2 =  1.338E-06

      iter #   3 total cpu time :    24.4 secs   av.it.:   8.6
      thresh= 1.157E-04 alpha_mix =  0.700 |ddv_scf|^2 =  3.129E-08

      iter #   4 total cpu time :    24.6 secs   av.it.:   8.2
      thresh= 1.769E-05 alpha_mix =  0.700 |ddv_scf|^2 =  7.535E-10

      iter #   5 total cpu time :    24.9 secs   av.it.:   8.6
      thresh= 2.745E-06 alpha_mix =  0.700 |ddv_scf|^2 =  8.313E-12

      iter #   6 total cpu time :    25.1 secs   av.it.:   7.8
      thresh= 2.883E-07 alpha_mix =  0.700 |ddv_scf|^2 =  1.188E-13

     End of self-consistent calculation

     Convergence has been achieved 


     Representation #  3 modes #   3  4

     Self-consistent Calculation

      iter #   1 total cpu time :    25.4 secs   av.it.:   5.0
      thresh= 1.000E-02 alpha_mix =  0.700 |ddv_scf|^2 =  9.391E-07

      iter #   2 total cpu time :    25.8 secs   av.it.:   9.8
      thresh= 9.691E-05 alpha_mix =  0.700 |ddv_scf|^2 =  1.192E-07

      iter #   3 total cpu time :    26.2 secs   av.it.:   9.5
      thresh= 3.453E-05 alpha_mix =  0.700 |ddv_scf|^2 =  4.911E-09

      iter #   4 total cpu time :    26.6 secs   av.it.:   8.9
      thresh= 7.008E-06 alpha_mix =  0.700 |ddv_scf|^2 =  8.789E-12

      iter #   5 total cpu time :    27.1 secs   av.it.:   9.1
      thresh= 2.965E-07 alpha_mix =  0.700 |ddv_scf|^2 =  3.004E-13

     End of self-consistent calculation

     Convergence has been achieved 


     Representation #  4 modes #   5  6

     Self-consistent Calculation

      iter #   1 total cpu time :    27.4 secs   av.it.:   5.0
      thresh= 1.000E-02 alpha_mix =  0.700 |ddv_scf|^2 =  9.418E-07

      iter #   2 total cpu time :    27.8 secs   av.it.:   9.8
      thresh= 9.705E-05 alpha_mix =  0.700 |ddv_scf|^2 =  1.195E-07

      iter #   3 total cpu time :    28.2 secs   av.it.:   9.5
      thresh= 3.457E-05 alpha_mix =  0.700 |ddv_scf|^2 =  7.313E-09

      iter #   4 total cpu time :    28.6 secs   av.it.:   8.9
      thresh= 8.552E-06 alpha_mix =  0.700 |ddv_scf|^2 =  1.542E-11

      iter #   5 total cpu time :    29.1 secs   av.it.:   9.2
      thresh= 3.927E-07 alpha_mix =  0.700 |ddv_scf|^2 =  4.577E-14

     End of self-consistent calculation

     Convergence has been achieved 

     Number of q in the star =    6
     List of q in the star:
          1   0.000000000   0.500000000   0.000000000
          2   0.000000000  -0.500000000   0.000000000
          3   0.500000000   0.000000000   0.000000000
          4   0.000000000   0.000000000   0.500000000
          5   0.000000000   0.000000000  -0.500000000
          6  -0.500000000   0.000000000   0.000000000

     Diagonalizing the dynamical matrix

     q = (    0.000000000   0.500000000   0.000000000 ) 

 **************************************************************************
     freq (    1) =       4.408934 [THz] =     147.066214 [cm-1]
     freq (    2) =       4.408934 [THz] =     147.066214 [cm-1]
     freq (    3) =       7.001397 [THz] =     233.541476 [cm-1]
     freq (    4) =      14.247645 [THz] =     475.250290 [cm-1]
     freq (    5) =      14.247645 [THz] =     475.250290 [cm-1]
     freq (    6) =      14.945450 [THz] =     498.526559 [cm-1]
 **************************************************************************

     Mode symmetry, C_4v (4mm)  point group:

     freq (  1 -  2) =        147.1  [cm-1]   --> E    G_5 D_5       
     freq (  3 -  3) =        233.5  [cm-1]   --> A_1  G_1 D_1       
     freq (  4 -  5) =        475.3  [cm-1]   --> E    G_5 D_5       
     freq (  6 -  6) =        498.5  [cm-1]   --> B_2  G_4 D_2'      

     Calculation of q =    0.7500000  -0.2500000   0.7500000

   Info: using nr1, nr2, nr3 values from input

   Info: using nr1, nr2, nr3 values from input

     Parallelization info
     --------------------
     sticks:   dense  smooth     PW     G-vecs:    dense   smooth      PW
     Min          65      65     30                  722      722     216
     Max          67      67     31                  723      723     218
     Sum         265     265    121                 2891     2891     869



     bravais-lattice index     =            2
     lattice parameter (alat)  =      10.3940  a.u.
     unit-cell volume          =     280.7296 (a.u.)^3
     number of atoms/cell      =            2
     number of atomic types    =            1
     number of electrons       =         8.00
     number of Kohn-Sham states=            4
     kinetic-energy cutoff     =      18.0000  Ry
     charge density cutoff     =      72.0000  Ry
     Exchange-correlation      = SLA  PW   PBE  PBE ( 1  4  3  4 0 0)

     celldm(1)=  10.394000  celldm(2)=   0.000000  celldm(3)=   0.000000
     celldm(4)=   0.000000  celldm(5)=   0.000000  celldm(6)=   0.000000

     crystal axes: (cart. coord. in units of alat)
               a(1) = (  -0.500000   0.000000   0.500000 )  
               a(2) = (   0.000000   0.500000   0.500000 )  
               a(3) = (  -0.500000   0.500000   0.000000 )  

     reciprocal axes: (cart. coord. in units 2 pi/alat)
               b(1) = ( -1.000000 -1.000000  1.000000 )  
               b(2) = (  1.000000  1.000000  1.000000 )  
               b(3) = ( -1.000000  1.000000 -1.000000 )  


     PseudoPot. # 1 for Si read from file:
     /home/max/quantum_espresso/qe-6.1/pseudo/si_pbe_v1.uspp.F.UPF.txt
     MD5 check sum: a056efeee980c13900f22a371efd63c1
     Pseudo is Ultrasoft + core correction, Zval =  4.0
     Generated by new atomic code, or converted to UPF format
     Using radial grid of  899 points,  6 beta functions with: 
                l(1) =   0
                l(2) =   0
                l(3) =   1
                l(4) =   1
                l(5) =   2
                l(6) =   2
     Q(r) pseudized with  8 coefficients,  rinner =    0.900   0.900   0.900
                                                       0.900   0.900

     atomic species   valence    mass     pseudopotential
        Si             4.00    28.08600     Si( 1.00)

     48 Sym. Ops., with inversion, found



   Cartesian axes

     site n.     atom                  positions (alat units)
         1           Si  tau(   1) = (   0.0000000   0.0000000   0.0000000  )
         2           Si  tau(   2) = (   0.2500000   0.2500000   0.2500000  )

     number of k points=   288

     Number of k-points >= 100: set verbosity='high' to print them.

     Dense  grid:     2891 G-vectors     FFT dimensions: (  20,  20,  20)

     Estimated max dynamical RAM per process >       0.33MB

     Estimated total allocated dynamical RAM >       1.33MB

     Check: negative/imaginary core charge=   -0.000006    0.000000

     The potential is recalculated from file :
     ./_ph0/silicon.10.394.save/charge-density.dat

     Starting wfc are    8 atomic wfcs

     Band Structure Calculation
     Davidson diagonalization with overlap

     ethr =  1.25E-10,  avg # of iterations = 11.6

     total cpu time spent up to now is        4.1 secs

     End of band structure calculation

     Number of k-points >= 100: set verbosity='high' to print the bands.

     highest occupied level (ev):     5.5270

     Writing output data file silicon.10.394.save

                                                                                

     bravais-lattice index     =            2
     lattice parameter (alat)  =      10.3940  a.u.
     unit-cell volume          =     280.7296 (a.u.)^3
     number of atoms/cell      =            2
     number of atomic types    =            1
     kinetic-energy cut-off    =      18.0000  Ry
     charge density cut-off    =      72.0000  Ry
     convergence threshold     =      1.0E-12
     beta                      =       0.7000
     number of iterations used =            4
     Exchange-correlation      = SLA  PW   PBE  PBE ( 1  4  3  4 0 0)


     celldm(1)=   10.39400  celldm(2)=    0.00000  celldm(3)=    0.00000
     celldm(4)=    0.00000  celldm(5)=    0.00000  celldm(6)=    0.00000

     crystal axes: (cart. coord. in units of alat)
               a(1) = ( -0.5000  0.0000  0.5000 )  
               a(2) = (  0.0000  0.5000  0.5000 )  
               a(3) = ( -0.5000  0.5000  0.0000 )  

     reciprocal axes: (cart. coord. in units 2 pi/alat)
               b(1) = ( -1.0000 -1.0000  1.0000 )  
               b(2) = (  1.0000  1.0000  1.0000 )  
               b(3) = ( -1.0000  1.0000 -1.0000 )  


     Atoms inside the unit cell: 

     Cartesian axes

     site n.  atom      mass           positions (alat units)
        1     Si  28.0860   tau(    1) = (    0.00000    0.00000    0.00000  )
        2     Si  28.0860   tau(    2) = (    0.25000    0.25000    0.25000  )

     Computing dynamical matrix for 
                    q = (   0.7500000  -0.2500000   0.7500000 )

      2 Sym.Ops. (no q -> -q+G )


     G cutoff =  197.0326  (    723 G-vectors)     FFT grid: ( 20, 20, 20)
     number of k points=   288

     PseudoPot. # 1 for Si read from file:
     /home/max/quantum_espresso/qe-6.1/pseudo/si_pbe_v1.uspp.F.UPF.txt
     MD5 check sum: a056efeee980c13900f22a371efd63c1
     Pseudo is Ultrasoft + core correction, Zval =  4.0
     Generated by new atomic code, or converted to UPF format
     Using radial grid of  899 points,  6 beta functions with: 
                l(1) =   0
                l(2) =   0
                l(3) =   1
                l(4) =   1
                l(5) =   2
                l(6) =   2
     Q(r) pseudized with  8 coefficients,  rinner =    0.900   0.900   0.900
                                                       0.900   0.900

     Mode symmetry, C_s (m)     point group:


     Atomic displacements:
     There are   6 irreducible representations

     Representation     1      1 modes -A'  To be done

     Representation     2      1 modes -A'  To be done

     Representation     3      1 modes -A'  To be done

     Representation     4      1 modes -A'  To be done

     Representation     5      1 modes -A''  To be done

     Representation     6      1 modes -A''  To be done



     Alpha used in Ewald sum =   0.7000
     PHONON       :    29.69s CPU        31.81s WALL



     Representation #  1 mode #   1

     Self-consistent Calculation

      iter #   1 total cpu time :    32.3 secs   av.it.:   5.3
      thresh= 1.000E-02 alpha_mix =  0.700 |ddv_scf|^2 =  6.040E-05

      iter #   2 total cpu time :    33.1 secs   av.it.:   8.9
      thresh= 7.771E-04 alpha_mix =  0.700 |ddv_scf|^2 =  1.600E-04

      iter #   3 total cpu time :    33.7 secs   av.it.:   7.6
      thresh= 1.265E-03 alpha_mix =  0.700 |ddv_scf|^2 =  1.127E-06

      iter #   4 total cpu time :    34.4 secs   av.it.:   8.4
      thresh= 1.062E-04 alpha_mix =  0.700 |ddv_scf|^2 =  5.733E-08

      iter #   5 total cpu time :    35.2 secs   av.it.:   8.3
      thresh= 2.394E-05 alpha_mix =  0.700 |ddv_scf|^2 =  7.294E-09

      iter #   6 total cpu time :    35.8 secs   av.it.:   8.5
      thresh= 8.541E-06 alpha_mix =  0.700 |ddv_scf|^2 =  9.568E-11

      iter #   7 total cpu time :    36.5 secs   av.it.:   8.7
      thresh= 9.782E-07 alpha_mix =  0.700 |ddv_scf|^2 =  3.241E-12

      iter #   8 total cpu time :    37.3 secs   av.it.:   8.6
      thresh= 1.800E-07 alpha_mix =  0.700 |ddv_scf|^2 =  2.317E-13

     End of self-consistent calculation

     Convergence has been achieved 


     Representation #  2 mode #   2

     Self-consistent Calculation

      iter #   1 total cpu time :    37.8 secs   av.it.:   5.4
      thresh= 1.000E-02 alpha_mix =  0.700 |ddv_scf|^2 =  1.075E-04

      iter #   2 total cpu time :    38.5 secs   av.it.:   8.7
      thresh= 1.037E-03 alpha_mix =  0.700 |ddv_scf|^2 =  3.083E-04

      iter #   3 total cpu time :    39.2 secs   av.it.:   7.4
      thresh= 1.756E-03 alpha_mix =  0.700 |ddv_scf|^2 =  8.017E-07

      iter #   4 total cpu time :    39.9 secs   av.it.:   8.6
      thresh= 8.954E-05 alpha_mix =  0.700 |ddv_scf|^2 =  5.556E-08

      iter #   5 total cpu time :    40.5 secs   av.it.:   8.2
      thresh= 2.357E-05 alpha_mix =  0.700 |ddv_scf|^2 =  1.052E-08

      iter #   6 total cpu time :    41.3 secs   av.it.:   8.5
      thresh= 1.026E-05 alpha_mix =  0.700 |ddv_scf|^2 =  9.375E-11

      iter #   7 total cpu time :    41.9 secs   av.it.:   8.7
      thresh= 9.683E-07 alpha_mix =  0.700 |ddv_scf|^2 =  2.933E-12

      iter #   8 total cpu time :    42.7 secs   av.it.:   8.6
      thresh= 1.712E-07 alpha_mix =  0.700 |ddv_scf|^2 =  5.661E-13

     End of self-consistent calculation

     Convergence has been achieved 


     Representation #  3 mode #   3

     Self-consistent Calculation

      iter #   1 total cpu time :    43.3 secs   av.it.:   5.3
      thresh= 1.000E-02 alpha_mix =  0.700 |ddv_scf|^2 =  8.433E-05

      iter #   2 total cpu time :    43.9 secs   av.it.:   8.8
      thresh= 9.183E-04 alpha_mix =  0.700 |ddv_scf|^2 =  2.257E-04

      iter #   3 total cpu time :    44.5 secs   av.it.:   7.4
      thresh= 1.502E-03 alpha_mix =  0.700 |ddv_scf|^2 =  1.366E-06

      iter #   4 total cpu time :    45.3 secs   av.it.:   8.2
      thresh= 1.169E-04 alpha_mix =  0.700 |ddv_scf|^2 =  5.749E-08

      iter #   5 total cpu time :    46.0 secs   av.it.:   8.4
      thresh= 2.398E-05 alpha_mix =  0.700 |ddv_scf|^2 =  1.088E-08

      iter #   6 total cpu time :    46.7 secs   av.it.:   8.5
      thresh= 1.043E-05 alpha_mix =  0.700 |ddv_scf|^2 =  5.256E-11

      iter #   7 total cpu time :    47.4 secs   av.it.:   8.7
      thresh= 7.250E-07 alpha_mix =  0.700 |ddv_scf|^2 =  2.125E-12

      iter #   8 total cpu time :    48.1 secs   av.it.:   8.7
      thresh= 1.458E-07 alpha_mix =  0.700 |ddv_scf|^2 =  4.748E-13

     End of self-consistent calculation

     Convergence has been achieved 


     Representation #  4 mode #   4

     Self-consistent Calculation

      iter #   1 total cpu time :    48.7 secs   av.it.:   5.2
      thresh= 1.000E-02 alpha_mix =  0.700 |ddv_scf|^2 =  3.722E-05

      iter #   2 total cpu time :    49.4 secs   av.it.:   8.9
[...]
        k(   59) = (  -0.8750000   0.1250000  -0.1250000), wk =   0.0625000
        k(   60) = (  -1.3750000  -0.8750000  -0.1250000), wk =   0.0000000
        k(   61) = (  -1.1250000   0.3750000  -0.3750000), wk =   0.0625000
        k(   62) = (  -1.6250000  -0.6250000  -0.3750000), wk =   0.0000000
        k(   63) = (  -0.3750000   0.3750000   1.1250000), wk =   0.0625000
        k(   64) = (  -0.8750000  -0.6250000   1.1250000), wk =   0.0000000

     Dense  grid:     2891 G-vectors     FFT dimensions: (  20,  20,  20)

     Estimated max dynamical RAM per process >       0.33MB

     Estimated total allocated dynamical RAM >       1.33MB

     Check: negative/imaginary core charge=   -0.000006    0.000000

     The potential is recalculated from file :
     ./_ph0/silicon.10.394.save/charge-density.dat

     Starting wfc are    8 atomic wfcs

     Band Structure Calculation
     Davidson diagonalization with overlap

     ethr =  1.25E-10,  avg # of iterations = 11.6

     total cpu time spent up to now is        6.6 secs

     End of band structure calculation

          k =-0.1250 0.1250 0.1250 (   347 PWs)   bands (ev):

    -5.6942   4.2169   5.5270   5.5270

          k =-0.6250-0.8750 0.1250 (   368 PWs)   bands (ev):

    -2.5581  -1.0351   1.9197   2.9712

          k =-0.3750 0.3750-0.1250 (   356 PWs)   bands (ev):

    -4.6862   1.2536   3.5761   5.0498

          k =-0.8750-0.6250-0.1250 (   368 PWs)   bands (ev):

    -2.5581  -1.0351   1.9197   2.9712

          k = 0.3750-0.3750 0.6250 (   364 PWs)   bands (ev):

    -3.5747  -0.7809   3.5864   4.2942

          k =-0.1250-1.3750 0.6250 (   365 PWs)   bands (ev):

    -3.0871  -0.7201   1.9693   3.9845

          k = 0.1250-0.1250 0.3750 (   358 PWs)   bands (ev):

    -5.1757   2.6060   4.5388   4.5923

          k =-0.3750-1.1250 0.3750 (   365 PWs)   bands (ev):

    -3.0871  -0.7201   1.9693   3.9845

          k =-0.1250 0.6250 0.1250 (   357 PWs)   bands (ev):

    -4.1625   0.8999   3.2381   3.6790

          k =-0.6250-0.3750 0.1250 (   362 PWs)   bands (ev):

    -3.7570   0.0535   2.6057   3.9505

          k = 0.6250-0.1250 0.8750 (   368 PWs)   bands (ev):

    -2.5581  -1.0351   1.9197   2.9712

          k = 0.1250-1.1250 0.8750 (   362 PWs)   bands (ev):

    -2.7171  -0.9417   2.5137   3.2192

          k = 0.3750 0.1250 0.6250 (   362 PWs)   bands (ev):

    -3.7570   0.0535   2.6057   3.9505

          k =-0.1250-0.8750 0.6250 (   368 PWs)   bands (ev):

    -2.5581  -1.0351   1.9197   2.9712

          k =-0.1250-0.8750 0.1250 (   362 PWs)   bands (ev):

    -2.7171  -0.9417   2.5137   3.2192

          k =-0.6250-1.8750 0.1250 (   357 PWs)   bands (ev):

    -4.1625   0.8999   3.2381   3.6790

          k =-0.3750 0.3750 0.3750 (   359 PWs)   bands (ev):

    -4.2638  -0.0048   4.7484   4.7484

          k =-0.8750-0.6250 0.3750 (   362 PWs)   bands (ev):

    -3.7570   0.0535   2.6057   3.9505

          k = 0.3750-0.3750 1.1250 (   365 PWs)   bands (ev):

    -3.0871  -0.7201   1.9693   3.9845

          k =-0.1250-1.3750 1.1250 (   368 PWs)   bands (ev):

    -2.5581  -1.0351   1.9197   2.9712

          k = 0.1250-0.3750 0.3750 (   356 PWs)   bands (ev):

    -4.6862   1.2536   3.5761   5.0498

          k =-0.3750-1.3750 0.3750 (   364 PWs)   bands (ev):

    -3.5747  -0.7809   3.5864   4.2942

          k = 0.3750-0.3750-0.1250 (   356 PWs)   bands (ev):

    -4.6862   1.2536   3.5761   5.0498

          k =-0.1250-1.3750-0.1250 (   357 PWs)   bands (ev):

    -4.1625   0.8999   3.2381   3.6790

          k =-0.6250 0.3750-0.3750 (   364 PWs)   bands (ev):

    -3.5747  -0.7809   3.5864   4.2942

          k =-1.1250-0.6250-0.3750 (   362 PWs)   bands (ev):

    -3.7570   0.0535   2.6057   3.9505

          k =-0.3750 0.3750 0.6250 (   364 PWs)   bands (ev):

    -3.5747  -0.7809   3.5864   4.2942

          k =-0.8750-0.6250 0.6250 (   356 PWs)   bands (ev):

    -4.6862   1.2536   3.5761   5.0498

          k =-0.3750 0.1250-0.1250 (   358 PWs)   bands (ev):

    -5.1757   2.6060   4.5388   4.5923

          k =-0.8750-0.8750-0.1250 (   362 PWs)   bands (ev):

    -2.7171  -0.9417   2.5137   3.2192

          k =-0.1250 0.1250 0.3750 (   358 PWs)   bands (ev):

    -5.1757   2.6060   4.5388   4.5923

          k =-0.6250-0.8750 0.3750 (   362 PWs)   bands (ev):

    -3.7570   0.0535   2.6057   3.9505

          k = 0.1250 0.6250-0.1250 (   357 PWs)   bands (ev):

    -4.1625   0.8999   3.2381   3.6790

          k =-0.3750-0.3750-0.1250 (   356 PWs)   bands (ev):

    -4.6862   1.2536   3.5761   5.0498

          k = 0.6250 0.1250-0.1250 (   357 PWs)   bands (ev):

    -4.1625   0.8999   3.2381   3.6790

          k = 0.1250-0.8750-0.1250 (   362 PWs)   bands (ev):

    -2.7171  -0.9417   2.5137   3.2192

          k =-0.8750 0.1250-0.6250 (   368 PWs)   bands (ev):

    -2.5581  -1.0351   1.9197   2.9712

          k =-1.3750-0.8750-0.6250 (   356 PWs)   bands (ev):

    -4.6862   1.2536   3.5761   5.0498

          k = 0.8750-0.1250 0.6250 (   368 PWs)   bands (ev):

    -2.5581  -1.0351   1.9197   2.9712

          k = 0.3750-1.1250 0.6250 (   362 PWs)   bands (ev):

    -3.7570   0.0535   2.6057   3.9505

          k =-0.6250 0.1250 0.8750 (   368 PWs)   bands (ev):

    -2.5581  -1.0351   1.9197   2.9712

          k =-1.1250-0.8750 0.8750 (   347 PWs)   bands (ev):

    -5.6942   4.2169   5.5270   5.5270

          k =-0.1250 0.8750 0.6250 (   368 PWs)   bands (ev):

    -2.5581  -1.0351   1.9197   2.9712

          k =-0.6250-0.1250 0.6250 (   365 PWs)   bands (ev):

    -3.0871  -0.7201   1.9693   3.9845

          k = 0.1250 0.8750-0.6250 (   368 PWs)   bands (ev):

    -2.5581  -1.0351   1.9197   2.9712

          k =-0.3750-0.1250-0.6250 (   362 PWs)   bands (ev):

    -3.7570   0.0535   2.6057   3.9505

          k =-0.6250-0.1250-0.3750 (   362 PWs)   bands (ev):

    -3.7570   0.0535   2.6057   3.9505

          k =-1.1250-1.1250-0.3750 (   357 PWs)   bands (ev):

    -4.1625   0.8999   3.2381   3.6790

          k = 0.6250 0.1250 0.3750 (   362 PWs)   bands (ev):

    -3.7570   0.0535   2.6057   3.9505

          k = 0.1250-0.8750 0.3750 (   368 PWs)   bands (ev):

    -2.5581  -1.0351   1.9197   2.9712

          k =-0.3750-0.1250 0.6250 (   362 PWs)   bands (ev):

    -3.7570   0.0535   2.6057   3.9505

          k =-0.8750-1.1250 0.6250 (   358 PWs)   bands (ev):

    -5.1757   2.6060   4.5388   4.5923

          k = 0.1250 0.6250 0.3750 (   362 PWs)   bands (ev):

    -3.7570   0.0535   2.6057   3.9505

          k =-0.3750-0.3750 0.3750 (   359 PWs)   bands (ev):

    -4.2638  -0.0048   4.7484   4.7484

          k =-0.1250 0.6250-0.3750 (   362 PWs)   bands (ev):

    -3.7570   0.0535   2.6057   3.9505

          k =-0.6250-0.3750-0.3750 (   364 PWs)   bands (ev):

    -3.5747  -0.7809   3.5864   4.2942

          k = 0.1250-0.8750-0.1250 (   362 PWs)   bands (ev):

    -2.7171  -0.9417   2.5137   3.2192

          k =-0.3750-1.8750-0.1250 (   358 PWs)   bands (ev):

    -5.1757   2.6060   4.5388   4.5923

          k =-0.8750 0.1250-0.1250 (   362 PWs)   bands (ev):

    -2.7171  -0.9417   2.5137   3.2192

          k =-1.3750-0.8750-0.1250 (   368 PWs)   bands (ev):

    -2.5581  -1.0351   1.9197   2.9712

          k =-1.1250 0.3750-0.3750 (   365 PWs)   bands (ev):

    -3.0871  -0.7201   1.9693   3.9845

          k =-1.6250-0.6250-0.3750 (   364 PWs)   bands (ev):

    -3.5747  -0.7809   3.5864   4.2942

          k =-0.3750 0.3750 1.1250 (   365 PWs)   bands (ev):

    -3.0871  -0.7201   1.9693   3.9845

          k =-0.8750-0.6250 1.1250 (   358 PWs)   bands (ev):

    -5.1757   2.6060   4.5388   4.5923

     highest occupied level (ev):     5.5270

     Writing output data file silicon.10.394.save

                                                                                

     bravais-lattice index     =            2
     lattice parameter (alat)  =      10.3940  a.u.
     unit-cell volume          =     280.7296 (a.u.)^3
     number of atoms/cell      =            2
     number of atomic types    =            1
     kinetic-energy cut-off    =      18.0000  Ry
     charge density cut-off    =      72.0000  Ry
     convergence threshold     =      1.0E-12
     beta                      =       0.7000
     number of iterations used =            4
     Exchange-correlation      = SLA  PW   PBE  PBE ( 1  4  3  4 0 0)


     celldm(1)=   10.39400  celldm(2)=    0.00000  celldm(3)=    0.00000
     celldm(4)=    0.00000  celldm(5)=    0.00000  celldm(6)=    0.00000

     crystal axes: (cart. coord. in units of alat)
               a(1) = ( -0.5000  0.0000  0.5000 )  
               a(2) = (  0.0000  0.5000  0.5000 )  
               a(3) = ( -0.5000  0.5000  0.0000 )  

     reciprocal axes: (cart. coord. in units 2 pi/alat)
               b(1) = ( -1.0000 -1.0000  1.0000 )  
               b(2) = (  1.0000  1.0000  1.0000 )  
               b(3) = ( -1.0000  1.0000 -1.0000 )  


     Atoms inside the unit cell: 

     Cartesian axes

     site n.  atom      mass           positions (alat units)
        1     Si  28.0860   tau(    1) = (    0.00000    0.00000    0.00000  )
        2     Si  28.0860   tau(    2) = (    0.25000    0.25000    0.25000  )

     Computing dynamical matrix for 
                    q = (  -0.5000000  -1.0000000   0.0000000 )

      8 Sym.Ops. (no q -> -q+G )


     G cutoff =  197.0326  (    722 G-vectors)     FFT grid: ( 20, 20, 20)
     number of k points=    64

     PseudoPot. # 1 for Si read from file:
     /home/max/quantum_espresso/qe-6.1/pseudo/si_pbe_v1.uspp.F.UPF.txt
     MD5 check sum: a056efeee980c13900f22a371efd63c1
     Pseudo is Ultrasoft + core correction, Zval =  4.0
     Generated by new atomic code, or converted to UPF format
     Using radial grid of  899 points,  6 beta functions with: 
                l(1) =   0
                l(2) =   0
                l(3) =   1
                l(4) =   1
                l(5) =   2
                l(6) =   2
     Q(r) pseudized with  8 coefficients,  rinner =    0.900   0.900   0.900
                                                       0.900   0.900


     Atomic displacements:
     There are   3 irreducible representations

     Representation     1      2 modes -  To be done

     Representation     2      2 modes -  To be done

     Representation     3      2 modes -  To be done



     Alpha used in Ewald sum =   0.7000
     PHONON       :  1m13.69s CPU     1m19.39s WALL



     Representation #  1 modes #   1  2

     Self-consistent Calculation

      iter #   1 total cpu time :    79.6 secs   av.it.:   5.3
      thresh= 1.000E-02 alpha_mix =  0.700 |ddv_scf|^2 =  6.296E-06

      iter #   2 total cpu time :    80.0 secs   av.it.:   9.8
      thresh= 2.509E-04 alpha_mix =  0.700 |ddv_scf|^2 =  3.385E-06

      iter #   3 total cpu time :    80.3 secs   av.it.:   9.3
      thresh= 1.840E-04 alpha_mix =  0.700 |ddv_scf|^2 =  8.493E-09

      iter #   4 total cpu time :    80.6 secs   av.it.:   9.1
      thresh= 9.216E-06 alpha_mix =  0.700 |ddv_scf|^2 =  2.757E-11

      iter #   5 total cpu time :    81.1 secs   av.it.:   9.0
      thresh= 5.251E-07 alpha_mix =  0.700 |ddv_scf|^2 =  8.818E-13

     End of self-consistent calculation

     Convergence has been achieved 


     Representation #  2 modes #   3  4

     Self-consistent Calculation

      iter #   1 total cpu time :    81.3 secs   av.it.:   5.2
      thresh= 1.000E-02 alpha_mix =  0.700 |ddv_scf|^2 =  9.711E-06

      iter #   2 total cpu time :    81.7 secs   av.it.:   9.9
      thresh= 3.116E-04 alpha_mix =  0.700 |ddv_scf|^2 =  1.318E-05

      iter #   3 total cpu time :    82.0 secs   av.it.:   9.1
      thresh= 3.630E-04 alpha_mix =  0.700 |ddv_scf|^2 =  1.015E-08

      iter #   4 total cpu time :    82.3 secs   av.it.:   8.9
      thresh= 1.007E-05 alpha_mix =  0.700 |ddv_scf|^2 =  9.540E-11

      iter #   5 total cpu time :    82.8 secs   av.it.:   9.4
      thresh= 9.767E-07 alpha_mix =  0.700 |ddv_scf|^2 =  1.846E-12

      iter #   6 total cpu time :    83.1 secs   av.it.:   9.1
      thresh= 1.359E-07 alpha_mix =  0.700 |ddv_scf|^2 =  1.657E-14

     End of self-consistent calculation

     Convergence has been achieved 


     Representation #  3 modes #   5  6

     Self-consistent Calculation

      iter #   1 total cpu time :    83.3 secs   av.it.:   5.1
      thresh= 1.000E-02 alpha_mix =  0.700 |ddv_scf|^2 =  2.623E-06

      iter #   2 total cpu time :    83.7 secs   av.it.:   9.7
      thresh= 1.620E-04 alpha_mix =  0.700 |ddv_scf|^2 =  1.429E-06

      iter #   3 total cpu time :    84.0 secs   av.it.:   9.0
      thresh= 1.195E-04 alpha_mix =  0.700 |ddv_scf|^2 =  8.123E-09

      iter #   4 total cpu time :    84.3 secs   av.it.:   8.7
      thresh= 9.013E-06 alpha_mix =  0.700 |ddv_scf|^2 =  4.634E-11

      iter #   5 total cpu time :    84.6 secs   av.it.:   9.1
      thresh= 6.808E-07 alpha_mix =  0.700 |ddv_scf|^2 =  7.357E-13

     End of self-consistent calculation

     Convergence has been achieved 

     Number of q in the star =    6
     List of q in the star:
          1  -0.500000000  -1.000000000   0.000000000
          2   0.000000000   1.000000000   0.500000000
          3   0.000000000  -1.000000000  -0.500000000
          4   0.500000000   1.000000000   0.000000000
          5  -1.000000000  -0.500000000   0.000000000
          6   0.000000000  -0.500000000  -1.000000000

     Diagonalizing the dynamical matrix

     q = (   -0.500000000  -1.000000000   0.000000000 ) 

 **************************************************************************
     freq (    1) =       7.785593 [THz] =     259.699428 [cm-1]
     freq (    2) =       7.785593 [THz] =     259.699428 [cm-1]
     freq (    3) =      11.040317 [THz] =     368.265326 [cm-1]
     freq (    4) =      11.040317 [THz] =     368.265326 [cm-1]
     freq (    5) =      13.771166 [THz] =     459.356649 [cm-1]
     freq (    6) =      13.771166 [THz] =     459.356649 [cm-1]
 **************************************************************************

     init_run     :      0.53s CPU      0.55s WALL (       7 calls)
     electrons    :      4.83s CPU      5.22s WALL (       7 calls)

     Called by init_run:
     wfcinit      :      0.00s CPU      0.00s WALL (       7 calls)
     potinit      :      0.02s CPU      0.02s WALL (       7 calls)

     Called by electrons:
     c_bands      :      4.83s CPU      5.20s WALL (       7 calls)
     v_of_rho     :      0.01s CPU      0.01s WALL (       8 calls)
     newd         :      0.03s CPU      0.03s WALL (       8 calls)

     Called by c_bands:
     init_us_2    :      0.68s CPU      0.71s WALL (   17588 calls)
     cegterg      :      4.10s CPU      4.41s WALL (     796 calls)

     Called by sum_band:

     Called by *egterg:
     h_psi        :     43.35s CPU     46.81s WALL (  152207 calls)
     s_psi        :      5.86s CPU      6.24s WALL (  309134 calls)
     g_psi        :      0.03s CPU      0.03s WALL (    9268 calls)
     cdiaghg      :      0.45s CPU      0.48s WALL (   10064 calls)

     Called by h_psi:
     h_psi:pot    :     43.16s CPU     46.61s WALL (  152207 calls)
     h_psi:calbec :      4.51s CPU      4.94s WALL (  152207 calls)
     vloc_psi     :     35.49s CPU     38.30s WALL (  152207 calls)
     add_vuspsi   :      2.94s CPU      3.13s WALL (  152207 calls)

     General routines
     calbec       :      9.78s CPU     10.70s WALL (  345506 calls)
     fft          :      0.41s CPU      0.46s WALL (    5239 calls)
     ffts         :      0.15s CPU      0.16s WALL (    2748 calls)
     fftw         :     40.99s CPU     44.24s WALL ( 1378450 calls)
     davcio       :      0.31s CPU      0.33s WALL (   79045 calls)

     Parallel routines
     fft_scatter  :      9.31s CPU     10.66s WALL ( 1386437 calls)

     PHONON       :  1m18.51s CPU     1m24.70s WALL

     INITIALIZATION: 
     phq_setup    :      0.05s CPU      0.05s WALL (       8 calls)
     phq_init     :      1.92s CPU      1.98s WALL (       8 calls)

     phq_init     :      1.92s CPU      1.98s WALL (       8 calls)
     set_drhoc    :      0.29s CPU      0.30s WALL (      24 calls)
     init_vloc    :      0.01s CPU      0.01s WALL (       8 calls)
     init_us_1    :      0.48s CPU      0.48s WALL (       8 calls)
     newd         :      0.03s CPU      0.03s WALL (       8 calls)
     dvanqq       :      0.24s CPU      0.24s WALL (       8 calls)
     drho         :      0.97s CPU      1.01s WALL (       8 calls)

     DYNAMICAL MATRIX:
     dynmat0      :      0.49s CPU      0.49s WALL (       8 calls)
     phqscf       :     68.55s CPU     74.19s WALL (       8 calls)
     dynmatrix    :      0.02s CPU      0.03s WALL (       8 calls)

     phqscf       :     68.55s CPU     74.19s WALL (       8 calls)
     solve_linter :     67.79s CPU     73.30s WALL (      32 calls)
     drhodv       :      0.54s CPU      0.63s WALL (      32 calls)

     dynmat0      :      0.49s CPU      0.49s WALL (       8 calls)
     dynmat_us    :      0.27s CPU      0.27s WALL (       8 calls)
     d2ionq       :      0.01s CPU      0.01s WALL (       8 calls)
     dynmatcc     :      0.21s CPU      0.21s WALL (       8 calls)

     dynmat_us    :      0.27s CPU      0.27s WALL (       8 calls)
     addusdynmat  :      0.00s CPU      0.00s WALL (       8 calls)

     phqscf       :     68.55s CPU     74.19s WALL (       8 calls)
     solve_linter :     67.79s CPU     73.30s WALL (      32 calls)

     solve_linter :     67.79s CPU     73.30s WALL (      32 calls)
     dvqpsi_us    :      1.66s CPU      1.74s WALL (    2508 calls)
     ortho        :      1.08s CPU      1.17s WALL (   15550 calls)
     cgsolve      :     53.19s CPU     57.51s WALL (   15550 calls)
     incdrhoscf   :      4.60s CPU      4.98s WALL (   15550 calls)
     addusddens   :      1.19s CPU      1.27s WALL (     228 calls)
     vpsifft      :      3.30s CPU      3.57s WALL (   12922 calls)
     dv_of_drho   :      0.21s CPU      0.21s WALL (     295 calls)
     mix_pot      :      0.05s CPU      0.07s WALL (     201 calls)
     psymdvscf    :      0.81s CPU      0.84s WALL (     196 calls)
     newdq        :      1.25s CPU      1.40s WALL (     201 calls)
     adddvscf     :      0.46s CPU      0.49s WALL (   13042 calls)
     drhodvus     :      0.00s CPU      0.00s WALL (      32 calls)

     dvqpsi_us    :      1.66s CPU      1.74s WALL (    2508 calls)
     dvqpsi_us_on :      0.83s CPU      0.87s WALL (    2508 calls)

     cgsolve      :     53.19s CPU     57.51s WALL (   15550 calls)
     ch_psi       :     51.41s CPU     55.51s WALL (  141347 calls)

     ch_psi       :     51.41s CPU     55.51s WALL (  141347 calls)
     h_psi        :     43.35s CPU     46.81s WALL (  152207 calls)
     last         :      8.35s CPU      9.05s WALL (  141347 calls)

     h_psi        :     43.35s CPU     46.81s WALL (  152207 calls)
     add_vuspsi   :      2.94s CPU      3.13s WALL (  152207 calls)

     incdrhoscf   :      4.60s CPU      4.98s WALL (   15550 calls)
     addusdbec    :      0.63s CPU      0.69s WALL (   17998 calls)

     drhodvus     :      0.00s CPU      0.00s WALL (      32 calls)

      General routines
     calbec       :      9.78s CPU     10.70s WALL (  345506 calls)
     fft          :      0.41s CPU      0.46s WALL (    5239 calls)
     ffts         :      0.15s CPU      0.16s WALL (    2748 calls)
     fftw         :     40.99s CPU     44.24s WALL ( 1378450 calls)
     davcio       :      0.31s CPU      0.33s WALL (   79045 calls)
     write_rec    :      0.22s CPU      0.25s WALL (     233 calls)


     PHONON       :  1m18.51s CPU     1m24.70s WALL


   This run was terminated on:  17:22:28   9Nov2017            

=------------------------------------------------------------------------------=
   JOB DONE.
=------------------------------------------------------------------------------=
