
     Program PHONON v.6.1 (svn rev. 13369) starts on  9Nov2017 at  1:44:46 

     This program is part of the open-source Quantum ESPRESSO suite
     for quantum simulation of materials; please cite
         "P. Giannozzi et al., J. Phys.:Condens. Matter 21 395502 (2009);
          URL http://www.quantum-espresso.org", 
     in publications or presentations arising from this work. More details at
     http://www.quantum-espresso.org/quote

     Parallel version (MPI), running on     4 processors
     R & G space division:  proc/nbgrp/npool/nimage =       4

     Reading data from directory:
     ./silicon.10.48.save

   Info: using nr1, nr2, nr3 values from input

   Info: using nr1, nr2, nr3 values from input

     IMPORTANT: XC functional enforced from input :
     Exchange-correlation      = SLA  PW   PBE  PBE ( 1  4  3  4 0 0)
     Any further DFT definition will be discarded
     Please, verify this is what you really want


     Parallelization info
     --------------------
     sticks:   dense  smooth     PW     G-vecs:    dense   smooth      PW
     Min          67      67     22                  743      743     152
     Max          68      68     23                  744      744     153
     Sum         271     271     91                 2975     2975     609


     Check: negative/imaginary core charge=   -0.000006    0.000000


     Dynamical matrices for ( 4, 4, 4)  uniform grid of q-points
     (   8q-points):
       N         xq(1)         xq(2)         xq(3) 
       1   0.000000000   0.000000000   0.000000000
       2  -0.250000000   0.250000000  -0.250000000
       3   0.500000000  -0.500000000   0.500000000
       4   0.000000000   0.500000000   0.000000000
       5   0.750000000  -0.250000000   0.750000000
       6   0.500000000   0.000000000   0.500000000
       7   0.000000000  -1.000000000   0.000000000
       8  -0.500000000  -1.000000000   0.000000000

     Calculation of q =    0.0000000   0.0000000   0.0000000

                                                                                

     bravais-lattice index     =            2
     lattice parameter (alat)  =      10.4800  a.u.
     unit-cell volume          =     287.7556 (a.u.)^3
     number of atoms/cell      =            2
     number of atomic types    =            1
     kinetic-energy cut-off    =      18.0000  Ry
     charge density cut-off    =      72.0000  Ry
     convergence threshold     =      1.0E-12
     beta                      =       0.7000
     number of iterations used =            4
     Exchange-correlation      = SLA  PW   PBE  PBE ( 1  4  3  4 0 0)


     celldm(1)=   10.48000  celldm(2)=    0.00000  celldm(3)=    0.00000
     celldm(4)=    0.00000  celldm(5)=    0.00000  celldm(6)=    0.00000

     crystal axes: (cart. coord. in units of alat)
               a(1) = ( -0.5000  0.0000  0.5000 )  
               a(2) = (  0.0000  0.5000  0.5000 )  
               a(3) = ( -0.5000  0.5000  0.0000 )  

     reciprocal axes: (cart. coord. in units 2 pi/alat)
               b(1) = ( -1.0000 -1.0000  1.0000 )  
               b(2) = (  1.0000  1.0000  1.0000 )  
               b(3) = ( -1.0000  1.0000 -1.0000 )  


     Atoms inside the unit cell: 

     Cartesian axes

     site n.  atom      mass           positions (alat units)
        1     Si  28.0860   tau(    1) = (    0.00000    0.00000    0.00000  )
        2     Si  28.0860   tau(    2) = (    0.25000    0.25000    0.25000  )

     Computing dynamical matrix for 
                    q = (   0.0000000   0.0000000   0.0000000 )

     49 Sym.Ops. (with q -> -q+G )


     G cutoff =  200.3066  (    744 G-vectors)     FFT grid: ( 24, 24, 24)
     number of k points=    10

     PseudoPot. # 1 for Si read from file:
     /home/max/quantum_espresso/qe-6.1/pseudo/si_pbe_v1.uspp.F.UPF.txt
     MD5 check sum: a056efeee980c13900f22a371efd63c1
     Pseudo is Ultrasoft + core correction, Zval =  4.0
     Generated by new atomic code, or converted to UPF format
     Using radial grid of  899 points,  6 beta functions with: 
                l(1) =   0
                l(2) =   0
                l(3) =   1
                l(4) =   1
                l(5) =   2
                l(6) =   2
     Q(r) pseudized with  8 coefficients,  rinner =    0.900   0.900   0.900
                                                       0.900   0.900

     Mode symmetry, O_h (m-3m)  point group:


     Electric field:
     Dielectric constant
     Born effective charges in two ways 


     Atomic displacements:
     There are   2 irreducible representations

     Representation     1      3 modes -T_2g G_25' G_5+  To be done

     Representation     2      3 modes -T_1u G_15  G_4-  To be done



     Alpha used in Ewald sum =   0.7000
     PHONON       :     0.40s CPU         0.42s WALL


     Electric Fields Calculation

      iter #   1 total cpu time :     0.9 secs   av.it.:   5.7
      thresh= 1.000E-02 alpha_mix =  0.700 |ddv_scf|^2 =  5.711E-07

      iter #   2 total cpu time :     1.1 secs   av.it.:  10.1
      thresh= 7.557E-05 alpha_mix =  0.700 |ddv_scf|^2 =  3.923E-08

      iter #   3 total cpu time :     1.4 secs   av.it.:   9.9
      thresh= 1.981E-05 alpha_mix =  0.700 |ddv_scf|^2 =  3.166E-09

      iter #   4 total cpu time :     1.7 secs   av.it.:   9.3
      thresh= 5.627E-06 alpha_mix =  0.700 |ddv_scf|^2 =  2.294E-11

      iter #   5 total cpu time :     2.0 secs   av.it.:   9.4
      thresh= 4.789E-07 alpha_mix =  0.700 |ddv_scf|^2 =  1.202E-14

     End of electric fields calculation

          Dielectric constant in cartesian axis 

          (      14.216245344       0.000000000       0.000000000 )
          (      -0.000000000      14.216245344      -0.000000000 )
          (       0.000000000      -0.000000000      14.216245344 )

          Effective charges (d Force / dE) in cartesian axis

           atom      1   Si 
      Ex  (       -0.02813        0.00000        0.00000 )
      Ey  (        0.00000       -0.02813        0.00000 )
      Ez  (        0.00000       -0.00000       -0.02813 )
           atom      2   Si 
      Ex  (       -0.02813        0.00000       -0.00000 )
      Ey  (        0.00000       -0.02813       -0.00000 )
      Ez  (        0.00000        0.00000       -0.02813 )


     Representation #  1 modes #   1  2  3

     Self-consistent Calculation

      iter #   1 total cpu time :     2.5 secs   av.it.:   4.9
      thresh= 1.000E-02 alpha_mix =  0.700 |ddv_scf|^2 =  1.203E-07

      iter #   2 total cpu time :     2.7 secs   av.it.:  10.1
      thresh= 3.469E-05 alpha_mix =  0.700 |ddv_scf|^2 =  7.035E-09

      iter #   3 total cpu time :     3.0 secs   av.it.:   9.8
      thresh= 8.387E-06 alpha_mix =  0.700 |ddv_scf|^2 =  4.689E-10

      iter #   4 total cpu time :     3.2 secs   av.it.:   9.3
      thresh= 2.165E-06 alpha_mix =  0.700 |ddv_scf|^2 =  1.090E-12

      iter #   5 total cpu time :     3.4 secs   av.it.:   9.8
      thresh= 1.044E-07 alpha_mix =  0.700 |ddv_scf|^2 =  7.156E-15

     End of self-consistent calculation

     Convergence has been achieved 


     Representation #  2 modes #   4  5  6

     Self-consistent Calculation

      iter #   1 total cpu time :     3.9 secs   av.it.:   5.0
      thresh= 1.000E-02 alpha_mix =  0.700 |ddv_scf|^2 =  1.138E-07

      iter #   2 total cpu time :     4.1 secs   av.it.:   9.9
      thresh= 3.373E-05 alpha_mix =  0.700 |ddv_scf|^2 =  9.436E-09

      iter #   3 total cpu time :     4.4 secs   av.it.:   9.6
      thresh= 9.714E-06 alpha_mix =  0.700 |ddv_scf|^2 =  5.696E-10

      iter #   4 total cpu time :     4.6 secs   av.it.:   9.8
      thresh= 2.387E-06 alpha_mix =  0.700 |ddv_scf|^2 =  3.313E-12

      iter #   5 total cpu time :     4.8 secs   av.it.:   9.3
      thresh= 1.820E-07 alpha_mix =  0.700 |ddv_scf|^2 =  3.619E-15

     End of self-consistent calculation

     Convergence has been achieved 

     Number of q in the star =    1
     List of q in the star:
          1   0.000000000   0.000000000   0.000000000

          Dielectric constant in cartesian axis 

          (      14.216245344       0.000000000       0.000000000 )
          (      -0.000000000      14.216245344      -0.000000000 )
          (       0.000000000      -0.000000000      14.216245344 )

          Effective charges (d Force / dE) in cartesian axis

           atom      1   Si 
      Ex  (       -0.02813        0.00000        0.00000 )
      Ey  (        0.00000       -0.02813        0.00000 )
      Ez  (        0.00000       -0.00000       -0.02813 )
           atom      2   Si 
      Ex  (       -0.02813        0.00000       -0.00000 )
      Ey  (        0.00000       -0.02813       -0.00000 )
      Ez  (        0.00000        0.00000       -0.02813 )

          Effective charges (d P / du) in cartesian axis 

           atom      1   Si 
      Px  (       -0.06983       -0.00000        0.00000 )
      Py  (       -0.00000       -0.06983       -0.00000 )
      Pz  (        0.00000        0.00000       -0.06983 )
           atom      2   Si 
      Px  (       -0.06983       -0.00000       -0.00000 )
      Py  (       -0.00000       -0.06983        0.00000 )
      Pz  (       -0.00000        0.00000       -0.06983 )

     Diagonalizing the dynamical matrix

     q = (    0.000000000   0.000000000   0.000000000 ) 

 **************************************************************************
     freq (    1) =       0.665790 [THz] =      22.208368 [cm-1]
     freq (    2) =       0.665790 [THz] =      22.208368 [cm-1]
     freq (    3) =       0.665790 [THz] =      22.208368 [cm-1]
     freq (    4) =      14.898320 [THz] =     496.954465 [cm-1]
     freq (    5) =      14.898320 [THz] =     496.954465 [cm-1]
     freq (    6) =      14.898320 [THz] =     496.954465 [cm-1]
 **************************************************************************

     Mode symmetry, O_h (m-3m)  point group:

     freq (  1 -  3) =         22.2  [cm-1]   --> T_1u G_15  G_4- I  
     freq (  4 -  6) =        497.0  [cm-1]   --> T_2g G_25' G_5+ R  

     Calculation of q =   -0.2500000   0.2500000  -0.2500000

   Info: using nr1, nr2, nr3 values from input

   Info: using nr1, nr2, nr3 values from input

     Parallelization info
     --------------------
     sticks:   dense  smooth     PW     G-vecs:    dense   smooth      PW
     Min          67      67     27                  743      743     175
     Max          69      69     28                  744      744     176
     Sum         271     271    109                 2975     2975     701



     bravais-lattice index     =            2
     lattice parameter (alat)  =      10.4800  a.u.
     unit-cell volume          =     287.7556 (a.u.)^3
     number of atoms/cell      =            2
     number of atomic types    =            1
     number of electrons       =         8.00
     number of Kohn-Sham states=            4
     kinetic-energy cutoff     =      18.0000  Ry
     charge density cutoff     =      72.0000  Ry
     Exchange-correlation      = SLA  PW   PBE  PBE ( 1  4  3  4 0 0)

     celldm(1)=  10.480000  celldm(2)=   0.000000  celldm(3)=   0.000000
     celldm(4)=   0.000000  celldm(5)=   0.000000  celldm(6)=   0.000000

     crystal axes: (cart. coord. in units of alat)
               a(1) = (  -0.500000   0.000000   0.500000 )  
               a(2) = (   0.000000   0.500000   0.500000 )  
               a(3) = (  -0.500000   0.500000   0.000000 )  

     reciprocal axes: (cart. coord. in units 2 pi/alat)
               b(1) = ( -1.000000 -1.000000  1.000000 )  
               b(2) = (  1.000000  1.000000  1.000000 )  
               b(3) = ( -1.000000  1.000000 -1.000000 )  


     PseudoPot. # 1 for Si read from file:
     /home/max/quantum_espresso/qe-6.1/pseudo/si_pbe_v1.uspp.F.UPF.txt
     MD5 check sum: a056efeee980c13900f22a371efd63c1
     Pseudo is Ultrasoft + core correction, Zval =  4.0
     Generated by new atomic code, or converted to UPF format
     Using radial grid of  899 points,  6 beta functions with: 
                l(1) =   0
                l(2) =   0
                l(3) =   1
                l(4) =   1
                l(5) =   2
                l(6) =   2
     Q(r) pseudized with  8 coefficients,  rinner =    0.900   0.900   0.900
                                                       0.900   0.900

     atomic species   valence    mass     pseudopotential
        Si             4.00    28.08600     Si( 1.00)

     48 Sym. Ops., with inversion, found



   Cartesian axes

     site n.     atom                  positions (alat units)
         1           Si  tau(   1) = (   0.0000000   0.0000000   0.0000000  )
         2           Si  tau(   2) = (   0.2500000   0.2500000   0.2500000  )

     number of k points=   120

     Number of k-points >= 100: set verbosity='high' to print them.

     Dense  grid:     2975 G-vectors     FFT dimensions: (  24,  24,  24)

     Estimated max dynamical RAM per process >       0.43MB

     Estimated total allocated dynamical RAM >       1.71MB

     Check: negative/imaginary core charge=   -0.000006    0.000000

     The potential is recalculated from file :
     ./_ph0/silicon.10.48.save/charge-density.dat

     Starting wfc are    8 atomic wfcs

     Band Structure Calculation
     Davidson diagonalization with overlap

     ethr =  1.25E-10,  avg # of iterations = 11.7

     total cpu time spent up to now is        1.1 secs

     End of band structure calculation

     Number of k-points >= 100: set verbosity='high' to print the bands.

     highest occupied level (ev):     5.2890

     Writing output data file silicon.10.48.save

                                                                                

     bravais-lattice index     =            2
     lattice parameter (alat)  =      10.4800  a.u.
     unit-cell volume          =     287.7556 (a.u.)^3
     number of atoms/cell      =            2
     number of atomic types    =            1
     kinetic-energy cut-off    =      18.0000  Ry
     charge density cut-off    =      72.0000  Ry
     convergence threshold     =      1.0E-12
     beta                      =       0.7000
     number of iterations used =            4
     Exchange-correlation      = SLA  PW   PBE  PBE ( 1  4  3  4 0 0)


     celldm(1)=   10.48000  celldm(2)=    0.00000  celldm(3)=    0.00000
     celldm(4)=    0.00000  celldm(5)=    0.00000  celldm(6)=    0.00000

     crystal axes: (cart. coord. in units of alat)
               a(1) = ( -0.5000  0.0000  0.5000 )  
               a(2) = (  0.0000  0.5000  0.5000 )  
               a(3) = ( -0.5000  0.5000  0.0000 )  

     reciprocal axes: (cart. coord. in units 2 pi/alat)
               b(1) = ( -1.0000 -1.0000  1.0000 )  
               b(2) = (  1.0000  1.0000  1.0000 )  
               b(3) = ( -1.0000  1.0000 -1.0000 )  


     Atoms inside the unit cell: 

     Cartesian axes

     site n.  atom      mass           positions (alat units)
        1     Si  28.0860   tau(    1) = (    0.00000    0.00000    0.00000  )
        2     Si  28.0860   tau(    2) = (    0.25000    0.25000    0.25000  )

     Computing dynamical matrix for 
                    q = (  -0.2500000   0.2500000  -0.2500000 )

      6 Sym.Ops. (no q -> -q+G )


     G cutoff =  200.3066  (    744 G-vectors)     FFT grid: ( 24, 24, 24)
     number of k points=   120

     PseudoPot. # 1 for Si read from file:
     /home/max/quantum_espresso/qe-6.1/pseudo/si_pbe_v1.uspp.F.UPF.txt
     MD5 check sum: a056efeee980c13900f22a371efd63c1
     Pseudo is Ultrasoft + core correction, Zval =  4.0
     Generated by new atomic code, or converted to UPF format
     Using radial grid of  899 points,  6 beta functions with: 
                l(1) =   0
                l(2) =   0
                l(3) =   1
                l(4) =   1
                l(5) =   2
                l(6) =   2
     Q(r) pseudized with  8 coefficients,  rinner =    0.900   0.900   0.900
                                                       0.900   0.900

     Mode symmetry, C_3v (3m)   point group:


     Atomic displacements:
     There are   4 irreducible representations

     Representation     1      1 modes -A_1  L_1  To be done

     Representation     2      1 modes -A_1  L_1  To be done

     Representation     3      2 modes -E    L_3  To be done

     Representation     4      2 modes -E    L_3  To be done



     Alpha used in Ewald sum =   0.7000
     PHONON       :     6.20s CPU         6.47s WALL



     Representation #  1 mode #   1

     Self-consistent Calculation

      iter #   1 total cpu time :     6.7 secs   av.it.:   5.5
      thresh= 1.000E-02 alpha_mix =  0.700 |ddv_scf|^2 =  1.373E-03

      iter #   2 total cpu time :     7.1 secs   av.it.:   7.8
      thresh= 3.706E-03 alpha_mix =  0.700 |ddv_scf|^2 =  2.108E-02

      iter #   3 total cpu time :     7.3 secs   av.it.:   6.3
      thresh= 1.000E-02 alpha_mix =  0.700 |ddv_scf|^2 =  9.952E-07

      iter #   4 total cpu time :     7.8 secs   av.it.:   8.5
      thresh= 9.976E-05 alpha_mix =  0.700 |ddv_scf|^2 =  7.070E-08

      iter #   5 total cpu time :     8.2 secs   av.it.:   8.4
      thresh= 2.659E-05 alpha_mix =  0.700 |ddv_scf|^2 =  2.773E-09

      iter #   6 total cpu time :     8.5 secs   av.it.:   8.4
      thresh= 5.266E-06 alpha_mix =  0.700 |ddv_scf|^2 =  2.147E-09

      iter #   7 total cpu time :     8.8 secs   av.it.:   6.6
      thresh= 4.633E-06 alpha_mix =  0.700 |ddv_scf|^2 =  4.961E-10

      iter #   8 total cpu time :     9.1 secs   av.it.:   7.5
      thresh= 2.227E-06 alpha_mix =  0.700 |ddv_scf|^2 =  2.026E-12

      iter #   9 total cpu time :     9.4 secs   av.it.:   7.4
      thresh= 1.423E-07 alpha_mix =  0.700 |ddv_scf|^2 =  9.146E-14

     End of self-consistent calculation

     Convergence has been achieved 


     Representation #  2 mode #   2

     Self-consistent Calculation

      iter #   1 total cpu time :     9.9 secs   av.it.:   5.5
      thresh= 1.000E-02 alpha_mix =  0.700 |ddv_scf|^2 =  1.373E-03

      iter #   2 total cpu time :    10.2 secs   av.it.:   7.8
      thresh= 3.706E-03 alpha_mix =  0.700 |ddv_scf|^2 =  2.108E-02

      iter #   3 total cpu time :    10.5 secs   av.it.:   6.3
      thresh= 1.000E-02 alpha_mix =  0.700 |ddv_scf|^2 =  9.952E-07

      iter #   4 total cpu time :    10.8 secs   av.it.:   8.5
      thresh= 9.976E-05 alpha_mix =  0.700 |ddv_scf|^2 =  7.070E-08

      iter #   5 total cpu time :    11.1 secs   av.it.:   8.4
      thresh= 2.659E-05 alpha_mix =  0.700 |ddv_scf|^2 =  2.773E-09

      iter #   6 total cpu time :    11.5 secs   av.it.:   8.4
      thresh= 5.266E-06 alpha_mix =  0.700 |ddv_scf|^2 =  2.147E-09

      iter #   7 total cpu time :    11.9 secs   av.it.:   6.6
      thresh= 4.633E-06 alpha_mix =  0.700 |ddv_scf|^2 =  4.961E-10

      iter #   8 total cpu time :    12.2 secs   av.it.:   7.5
      thresh= 2.227E-06 alpha_mix =  0.700 |ddv_scf|^2 =  2.026E-12

      iter #   9 total cpu time :    12.5 secs   av.it.:   7.4
      thresh= 1.423E-07 alpha_mix =  0.700 |ddv_scf|^2 =  9.146E-14

     End of self-consistent calculation

     Convergence has been achieved 


     Representation #  3 modes #   3  4

     Self-consistent Calculation

      iter #   1 total cpu time :    13.1 secs   av.it.:   4.9
      thresh= 1.000E-02 alpha_mix =  0.700 |ddv_scf|^2 =  3.266E-07

      iter #   2 total cpu time :    14.0 secs   av.it.:   9.9
      thresh= 5.715E-05 alpha_mix =  0.700 |ddv_scf|^2 =  2.460E-08

      iter #   3 total cpu time :    14.7 secs   av.it.:   9.7
      thresh= 1.569E-05 alpha_mix =  0.700 |ddv_scf|^2 =  2.167E-09

      iter #   4 total cpu time :    15.4 secs   av.it.:   9.3
      thresh= 4.655E-06 alpha_mix =  0.700 |ddv_scf|^2 =  6.782E-12

      iter #   5 total cpu time :    16.4 secs   av.it.:   9.6
      thresh= 2.604E-07 alpha_mix =  0.700 |ddv_scf|^2 =  2.939E-13

     End of self-consistent calculation

     Convergence has been achieved 


     Representation #  4 modes #   5  6

     Self-consistent Calculation

      iter #   1 total cpu time :    16.9 secs   av.it.:   5.0
      thresh= 1.000E-02 alpha_mix =  0.700 |ddv_scf|^2 =  3.265E-07

      iter #   2 total cpu time :    17.8 secs   av.it.:  10.0
      thresh= 5.714E-05 alpha_mix =  0.700 |ddv_scf|^2 =  2.457E-08

      iter #   3 total cpu time :    18.5 secs   av.it.:   9.9
      thresh= 1.568E-05 alpha_mix =  0.700 |ddv_scf|^2 =  2.164E-09

      iter #   4 total cpu time :    19.3 secs   av.it.:   9.4
      thresh= 4.652E-06 alpha_mix =  0.700 |ddv_scf|^2 =  6.787E-12

      iter #   5 total cpu time :    20.2 secs   av.it.:   9.7
      thresh= 2.605E-07 alpha_mix =  0.700 |ddv_scf|^2 =  2.941E-13

     End of self-consistent calculation

     Convergence has been achieved 

     Number of q in the star =    8
     List of q in the star:
          1  -0.250000000   0.250000000  -0.250000000
          2   0.250000000  -0.250000000  -0.250000000
          3   0.250000000  -0.250000000   0.250000000
          4   0.250000000   0.250000000   0.250000000
          5  -0.250000000  -0.250000000  -0.250000000
          6  -0.250000000  -0.250000000   0.250000000
          7  -0.250000000   0.250000000   0.250000000
          8   0.250000000   0.250000000  -0.250000000

     Diagonalizing the dynamical matrix

     q = (   -0.250000000   0.250000000  -0.250000000 ) 

 **************************************************************************
     freq (    1) =       2.921894 [THz] =      97.463904 [cm-1]
     freq (    2) =       2.921894 [THz] =      97.463904 [cm-1]
     freq (    3) =       6.327441 [THz] =     211.060711 [cm-1]
     freq (    4) =      14.038074 [THz] =     468.259743 [cm-1]
     freq (    5) =      14.247752 [THz] =     475.253863 [cm-1]
     freq (    6) =      14.247752 [THz] =     475.253863 [cm-1]
 **************************************************************************

     Mode symmetry, C_3v (3m)   point group:

     freq (  1 -  2) =         97.5  [cm-1]   --> E    L_3           
     freq (  3 -  3) =        211.1  [cm-1]   --> A_1  L_1           
     freq (  4 -  4) =        468.3  [cm-1]   --> A_1  L_1           
     freq (  5 -  6) =        475.3  [cm-1]   --> E    L_3           

     Calculation of q =    0.5000000  -0.5000000   0.5000000

   Info: using nr1, nr2, nr3 values from input

   Info: using nr1, nr2, nr3 values from input

     Parallelization info
     --------------------
     sticks:   dense  smooth     PW     G-vecs:    dense   smooth      PW
     Min          67      67     30                  743      743     205
     Max          69      69     31                  744      744     206
     Sum         271     271    121                 2975     2975     821



     bravais-lattice index     =            2
     lattice parameter (alat)  =      10.4800  a.u.
     unit-cell volume          =     287.7556 (a.u.)^3
     number of atoms/cell      =            2
     number of atomic types    =            1
     number of electrons       =         8.00
     number of Kohn-Sham states=            4
     kinetic-energy cutoff     =      18.0000  Ry
     charge density cutoff     =      72.0000  Ry
     Exchange-correlation      = SLA  PW   PBE  PBE ( 1  4  3  4 0 0)

     celldm(1)=  10.480000  celldm(2)=   0.000000  celldm(3)=   0.000000
     celldm(4)=   0.000000  celldm(5)=   0.000000  celldm(6)=   0.000000

     crystal axes: (cart. coord. in units of alat)
               a(1) = (  -0.500000   0.000000   0.500000 )  
               a(2) = (   0.000000   0.500000   0.500000 )  
               a(3) = (  -0.500000   0.500000   0.000000 )  

     reciprocal axes: (cart. coord. in units 2 pi/alat)
               b(1) = ( -1.000000 -1.000000  1.000000 )  
               b(2) = (  1.000000  1.000000  1.000000 )  
               b(3) = ( -1.000000  1.000000 -1.000000 )  


     PseudoPot. # 1 for Si read from file:
     /home/max/quantum_espresso/qe-6.1/pseudo/si_pbe_v1.uspp.F.UPF.txt
     MD5 check sum: a056efeee980c13900f22a371efd63c1
     Pseudo is Ultrasoft + core correction, Zval =  4.0
     Generated by new atomic code, or converted to UPF format
     Using radial grid of  899 points,  6 beta functions with: 
                l(1) =   0
                l(2) =   0
                l(3) =   1
                l(4) =   1
                l(5) =   2
                l(6) =   2
     Q(r) pseudized with  8 coefficients,  rinner =    0.900   0.900   0.900
                                                       0.900   0.900

     atomic species   valence    mass     pseudopotential
        Si             4.00    28.08600     Si( 1.00)

     48 Sym. Ops., with inversion, found



   Cartesian axes

     site n.     atom                  positions (alat units)
         1           Si  tau(   1) = (   0.0000000   0.0000000   0.0000000  )
         2           Si  tau(   2) = (   0.2500000   0.2500000   0.2500000  )

     number of k points=    60
                       cart. coord. in units 2pi/alat
        k(    1) = (  -0.1250000   0.1250000   0.1250000), wk =   0.0468750
        k(    2) = (   0.3750000  -0.3750000   0.6250000), wk =   0.0000000
        k(    3) = (  -0.3750000   0.3750000  -0.1250000), wk =   0.0468750
        k(    4) = (   0.1250000  -0.1250000   0.3750000), wk =   0.0000000
        k(    5) = (   0.3750000  -0.3750000   0.6250000), wk =   0.0468750
        k(    6) = (   0.8750000  -0.8750000   1.1250000), wk =   0.0000000
        k(    7) = (   0.1250000  -0.1250000   0.3750000), wk =   0.0468750
        k(    8) = (   0.6250000  -0.6250000   0.8750000), wk =   0.0000000
        k(    9) = (  -0.1250000   0.6250000   0.1250000), wk =   0.0937500
        k(   10) = (   0.3750000   0.1250000   0.6250000), wk =   0.0000000
        k(   11) = (   0.6250000  -0.1250000   0.8750000), wk =   0.0937500
        k(   12) = (   1.1250000  -0.6250000   1.3750000), wk =   0.0000000
        k(   13) = (   0.3750000   0.1250000   0.6250000), wk =   0.0937500
        k(   14) = (   0.8750000  -0.3750000   1.1250000), wk =   0.0000000
        k(   15) = (  -0.1250000  -0.8750000   0.1250000), wk =   0.0937500
        k(   16) = (   0.3750000  -1.3750000   0.6250000), wk =   0.0000000
        k(   17) = (  -0.3750000   0.3750000   0.3750000), wk =   0.0468750
        k(   18) = (   0.1250000  -0.1250000   0.8750000), wk =   0.0000000
        k(   19) = (   0.3750000  -0.3750000   1.1250000), wk =   0.0468750
        k(   20) = (   0.8750000  -0.8750000   1.6250000), wk =   0.0000000
        k(   21) = (   0.1250000  -0.1250000   0.1250000), wk =   0.0156250
        k(   22) = (   0.6250000  -0.6250000   0.6250000), wk =   0.0000000
        k(   23) = (  -0.3750000  -0.3750000  -0.1250000), wk =   0.0937500
        k(   24) = (   0.1250000  -0.8750000   0.3750000), wk =   0.0000000
        k(   25) = (  -0.1250000  -0.3750000   0.3750000), wk =   0.0468750
        k(   26) = (   0.3750000  -0.8750000   0.8750000), wk =   0.0000000
        k(   27) = (   0.3750000   0.3750000   0.6250000), wk =   0.0937500
        k(   28) = (   0.8750000  -0.1250000   1.1250000), wk =   0.0000000
        k(   29) = (   0.6250000   0.3750000  -0.3750000), wk =   0.0468750
        k(   30) = (   1.1250000  -0.1250000   0.1250000), wk =   0.0000000
        k(   31) = (   0.1250000   0.1250000   0.3750000), wk =   0.0937500
        k(   32) = (   0.6250000  -0.3750000   0.8750000), wk =   0.0000000
        k(   33) = (   0.3750000   0.1250000  -0.1250000), wk =   0.0468750
        k(   34) = (   0.8750000  -0.3750000   0.3750000), wk =   0.0000000
        k(   35) = (  -0.1250000  -0.6250000  -0.1250000), wk =   0.0468750
        k(   36) = (   0.3750000  -1.1250000   0.3750000), wk =   0.0000000
        k(   37) = (   0.1250000  -0.6250000   0.1250000), wk =   0.0468750
        k(   38) = (   0.6250000  -1.1250000   0.6250000), wk =   0.0000000
        k(   39) = (   0.6250000   0.1250000   0.8750000), wk =   0.0937500
        k(   40) = (   1.1250000  -0.3750000   1.3750000), wk =   0.0000000
        k(   41) = (  -0.8750000   0.1250000   0.6250000), wk =   0.0937500
        k(   42) = (  -0.3750000  -0.3750000   1.1250000), wk =   0.0000000
        k(   43) = (   0.8750000   0.1250000  -0.6250000), wk =   0.0937500
        k(   44) = (   1.3750000  -0.3750000  -0.1250000), wk =   0.0000000
        k(   45) = (   0.3750000  -0.1250000   0.6250000), wk =   0.0937500
        k(   46) = (   0.8750000  -0.6250000   1.1250000), wk =   0.0000000
        k(   47) = (  -0.6250000  -0.1250000   0.3750000), wk =   0.0937500
        k(   48) = (  -0.1250000  -0.6250000   0.8750000), wk =   0.0000000
        k(   49) = (   0.6250000  -0.1250000  -0.3750000), wk =   0.0937500
        k(   50) = (   1.1250000  -0.6250000   0.1250000), wk =   0.0000000
        k(   51) = (  -0.1250000   0.8750000  -0.1250000), wk =   0.0468750
        k(   52) = (   0.3750000   0.3750000   0.3750000), wk =   0.0000000
        k(   53) = (   0.1250000   0.8750000   0.1250000), wk =   0.0468750
        k(   54) = (   0.6250000   0.3750000   0.6250000), wk =   0.0000000
        k(   55) = (   0.3750000  -0.3750000   0.3750000), wk =   0.0156250
        k(   56) = (   0.8750000  -0.8750000   0.8750000), wk =   0.0000000
        k(   57) = (   0.3750000   0.3750000   1.1250000), wk =   0.0937500
        k(   58) = (   0.8750000  -0.1250000   1.6250000), wk =   0.0000000
        k(   59) = (   1.1250000   0.3750000  -0.3750000), wk =   0.0468750
        k(   60) = (   1.6250000  -0.1250000   0.1250000), wk =   0.0000000

     Dense  grid:     2975 G-vectors     FFT dimensions: (  24,  24,  24)

     Estimated max dynamical RAM per process >       0.43MB

     Estimated total allocated dynamical RAM >       1.71MB

     Check: negative/imaginary core charge=   -0.000006    0.000000

     The potential is recalculated from file :
     ./_ph0/silicon.10.48.save/charge-density.dat

     Starting wfc are    8 atomic wfcs

     Band Structure Calculation
     Davidson diagonalization with overlap

     ethr =  1.25E-10,  avg # of iterations = 11.7

     total cpu time spent up to now is        1.7 secs

     End of band structure calculation

          k =-0.1250 0.1250 0.1250 (   362 PWs)   bands (ev):

    -5.7787   3.9735   5.2890   5.2890

          k = 0.3750-0.3750 0.6250 (   375 PWs)   bands (ev):

    -3.7153  -0.9285   3.3799   4.0824

          k =-0.3750 0.3750-0.1250 (   370 PWs)   bands (ev):

    -4.7942   1.0533   3.3809   4.8184

          k = 0.1250-0.1250 0.3750 (   364 PWs)   bands (ev):

    -5.2712   2.3756   4.3264   4.3674

          k = 0.3750-0.3750 0.6250 (   375 PWs)   bands (ev):

    -3.7153  -0.9285   3.3799   4.0824

          k = 0.8750-0.8750 1.1250 (   362 PWs)   bands (ev):

    -5.7787   3.9735   5.2890   5.2890

          k = 0.1250-0.1250 0.3750 (   364 PWs)   bands (ev):

    -5.2712   2.3756   4.3264   4.3674

          k = 0.6250-0.6250 0.8750 (   370 PWs)   bands (ev):

    -4.7942   1.0533   3.3809   4.8184

          k =-0.1250 0.6250 0.1250 (   367 PWs)   bands (ev):

    -4.2808   0.6795   3.0559   3.4850

          k = 0.3750 0.1250 0.6250 (   372 PWs)   bands (ev):

    -3.8875  -0.1356   2.4344   3.7511

          k = 0.6250-0.1250 0.8750 (   378 PWs)   bands (ev):

    -2.7187  -1.2197   1.7782   2.8012

          k = 1.1250-0.6250 1.3750 (   370 PWs)   bands (ev):

    -4.7942   1.0533   3.3809   4.8184

          k = 0.3750 0.1250 0.6250 (   372 PWs)   bands (ev):

    -3.8875  -0.1356   2.4344   3.7511

          k = 0.8750-0.3750 1.1250 (   367 PWs)   bands (ev):

    -4.2808   0.6795   3.0559   3.4850

          k =-0.1250-0.8750 0.1250 (   368 PWs)   bands (ev):

    -2.8679  -1.1310   2.3548   3.0343

          k = 0.3750-1.3750 0.6250 (   375 PWs)   bands (ev):

    -3.7153  -0.9285   3.3799   4.0824

          k =-0.3750 0.3750 0.3750 (   362 PWs)   bands (ev):

    -4.3828  -0.1669   4.5244   4.5244

          k = 0.1250-0.1250 0.8750 (   368 PWs)   bands (ev):

    -2.8679  -1.1310   2.3548   3.0343

          k = 0.3750-0.3750 1.1250 (   374 PWs)   bands (ev):

    -3.2376  -0.8935   1.8183   3.7807

          k = 0.8750-0.8750 1.6250 (   367 PWs)   bands (ev):

    -4.2808   0.6795   3.0559   3.4850

          k = 0.1250-0.1250 0.1250 (   362 PWs)   bands (ev):

    -5.7787   3.9735   5.2890   5.2890

          k = 0.6250-0.6250 0.6250 (   362 PWs)   bands (ev):

    -4.3828  -0.1669   4.5244   4.5244

          k =-0.3750-0.3750-0.1250 (   370 PWs)   bands (ev):

    -4.7942   1.0533   3.3809   4.8184

          k = 0.1250-0.8750 0.3750 (   378 PWs)   bands (ev):

    -2.7187  -1.2197   1.7782   2.8012

          k =-0.1250-0.3750 0.3750 (   370 PWs)   bands (ev):

    -4.7942   1.0533   3.3809   4.8184

          k = 0.3750-0.8750 0.8750 (   367 PWs)   bands (ev):

    -4.2808   0.6795   3.0559   3.4850

          k = 0.3750 0.3750 0.6250 (   375 PWs)   bands (ev):

    -3.7153  -0.9285   3.3799   4.0824

          k = 0.8750-0.1250 1.1250 (   368 PWs)   bands (ev):

    -2.8679  -1.1310   2.3548   3.0343

          k = 0.6250 0.3750-0.3750 (   375 PWs)   bands (ev):

    -3.7153  -0.9285   3.3799   4.0824

          k = 1.1250-0.1250 0.1250 (   368 PWs)   bands (ev):

    -2.8679  -1.1310   2.3548   3.0343

          k = 0.1250 0.1250 0.3750 (   364 PWs)   bands (ev):

    -5.2712   2.3756   4.3264   4.3674

          k = 0.6250-0.3750 0.8750 (   372 PWs)   bands (ev):

    -3.8875  -0.1356   2.4344   3.7511

          k = 0.3750 0.1250-0.1250 (   364 PWs)   bands (ev):

    -5.2712   2.3756   4.3264   4.3674

          k = 0.8750-0.3750 0.3750 (   374 PWs)   bands (ev):

    -3.2376  -0.8935   1.8183   3.7807

          k =-0.1250-0.6250-0.1250 (   367 PWs)   bands (ev):

    -4.2808   0.6795   3.0559   3.4850

          k = 0.3750-1.1250 0.3750 (   374 PWs)   bands (ev):

    -3.2376  -0.8935   1.8183   3.7807

          k = 0.1250-0.6250 0.1250 (   367 PWs)   bands (ev):

    -4.2808   0.6795   3.0559   3.4850

          k = 0.6250-1.1250 0.6250 (   370 PWs)   bands (ev):

    -4.7942   1.0533   3.3809   4.8184

          k = 0.6250 0.1250 0.8750 (   378 PWs)   bands (ev):

    -2.7187  -1.2197   1.7782   2.8012

          k = 1.1250-0.3750 1.3750 (   372 PWs)   bands (ev):

    -3.8875  -0.1356   2.4344   3.7511

          k =-0.8750 0.1250 0.6250 (   378 PWs)   bands (ev):

    -2.7187  -1.2197   1.7782   2.8012

          k =-0.3750-0.3750 1.1250 (   374 PWs)   bands (ev):

    -3.2376  -0.8935   1.8183   3.7807

          k = 0.8750 0.1250-0.6250 (   378 PWs)   bands (ev):

    -2.7187  -1.2197   1.7782   2.8012

          k = 1.3750-0.3750-0.1250 (   372 PWs)   bands (ev):

    -3.8875  -0.1356   2.4344   3.7511

          k = 0.3750-0.1250 0.6250 (   372 PWs)   bands (ev):

    -3.8875  -0.1356   2.4344   3.7511

          k = 0.8750-0.6250 1.1250 (   364 PWs)   bands (ev):

    -5.2712   2.3756   4.3264   4.3674

          k =-0.6250-0.1250 0.3750 (   372 PWs)   bands (ev):

    -3.8875  -0.1356   2.4344   3.7511

          k =-0.1250-0.6250 0.8750 (   378 PWs)   bands (ev):

    -2.7187  -1.2197   1.7782   2.8012

          k = 0.6250-0.1250-0.3750 (   372 PWs)   bands (ev):

    -3.8875  -0.1356   2.4344   3.7511

          k = 1.1250-0.6250 0.1250 (   378 PWs)   bands (ev):

    -2.7187  -1.2197   1.7782   2.8012

          k =-0.1250 0.8750-0.1250 (   368 PWs)   bands (ev):

    -2.8679  -1.1310   2.3548   3.0343

          k = 0.3750 0.3750 0.3750 (   362 PWs)   bands (ev):

    -4.3828  -0.1669   4.5244   4.5244

          k = 0.1250 0.8750 0.1250 (   368 PWs)   bands (ev):

    -2.8679  -1.1310   2.3548   3.0343

          k = 0.6250 0.3750 0.6250 (   375 PWs)   bands (ev):

    -3.7153  -0.9285   3.3799   4.0824

          k = 0.3750-0.3750 0.3750 (   362 PWs)   bands (ev):

    -4.3828  -0.1669   4.5244   4.5244

          k = 0.8750-0.8750 0.8750 (   362 PWs)   bands (ev):

    -5.7787   3.9735   5.2890   5.2890

          k = 0.3750 0.3750 1.1250 (   374 PWs)   bands (ev):

    -3.2376  -0.8935   1.8183   3.7807

          k = 0.8750-0.1250 1.6250 (   378 PWs)   bands (ev):

    -2.7187  -1.2197   1.7782   2.8012

          k = 1.1250 0.3750-0.3750 (   374 PWs)   bands (ev):

    -3.2376  -0.8935   1.8183   3.7807

          k = 1.6250-0.1250 0.1250 (   364 PWs)   bands (ev):

    -5.2712   2.3756   4.3264   4.3674

     highest occupied level (ev):     5.2890

     Writing output data file silicon.10.48.save

                                                                                

     bravais-lattice index     =            2
     lattice parameter (alat)  =      10.4800  a.u.
     unit-cell volume          =     287.7556 (a.u.)^3
     number of atoms/cell      =            2
     number of atomic types    =            1
     kinetic-energy cut-off    =      18.0000  Ry
     charge density cut-off    =      72.0000  Ry
     convergence threshold     =      1.0E-12
     beta                      =       0.7000
     number of iterations used =            4
     Exchange-correlation      = SLA  PW   PBE  PBE ( 1  4  3  4 0 0)


     celldm(1)=   10.48000  celldm(2)=    0.00000  celldm(3)=    0.00000
     celldm(4)=    0.00000  celldm(5)=    0.00000  celldm(6)=    0.00000

     crystal axes: (cart. coord. in units of alat)
               a(1) = ( -0.5000  0.0000  0.5000 )  
               a(2) = (  0.0000  0.5000  0.5000 )  
               a(3) = ( -0.5000  0.5000  0.0000 )  

     reciprocal axes: (cart. coord. in units 2 pi/alat)
               b(1) = ( -1.0000 -1.0000  1.0000 )  
               b(2) = (  1.0000  1.0000  1.0000 )  
               b(3) = ( -1.0000  1.0000 -1.0000 )  


     Atoms inside the unit cell: 

     Cartesian axes

     site n.  atom      mass           positions (alat units)
        1     Si  28.0860   tau(    1) = (    0.00000    0.00000    0.00000  )
        2     Si  28.0860   tau(    2) = (    0.25000    0.25000    0.25000  )

     Computing dynamical matrix for 
                    q = (   0.5000000  -0.5000000   0.5000000 )

     13 Sym.Ops. (with q -> -q+G )


     G cutoff =  200.3066  (    744 G-vectors)     FFT grid: ( 24, 24, 24)
     number of k points=    60

     PseudoPot. # 1 for Si read from file:
     /home/max/quantum_espresso/qe-6.1/pseudo/si_pbe_v1.uspp.F.UPF.txt
     MD5 check sum: a056efeee980c13900f22a371efd63c1
     Pseudo is Ultrasoft + core correction, Zval =  4.0
     Generated by new atomic code, or converted to UPF format
     Using radial grid of  899 points,  6 beta functions with: 
                l(1) =   0
                l(2) =   0
                l(3) =   1
                l(4) =   1
                l(5) =   2
                l(6) =   2
     Q(r) pseudized with  8 coefficients,  rinner =    0.900   0.900   0.900
                                                       0.900   0.900


     Atomic displacements:
     There are   4 irreducible representations

     Representation     1      1 modes -  To be done

     Representation     2      1 modes -  To be done

     Representation     3      2 modes -  To be done

     Representation     4      2 modes -  To be done



     Alpha used in Ewald sum =   0.7000
     PHONON       :    20.09s CPU        21.03s WALL



     Representation #  1 mode #   1

     Self-consistent Calculation

      iter #   1 total cpu time :    21.2 secs   av.it.:   4.8
      thresh= 1.000E-02 alpha_mix =  0.700 |ddv_scf|^2 =  1.402E-05

      iter #   2 total cpu time :    21.4 secs   av.it.:   8.6
      thresh= 3.744E-04 alpha_mix =  0.700 |ddv_scf|^2 =  1.293E-05

      iter #   3 total cpu time :    21.5 secs   av.it.:   7.7
      thresh= 3.595E-04 alpha_mix =  0.700 |ddv_scf|^2 =  3.226E-08

      iter #   4 total cpu time :    21.9 secs   av.it.:   7.6
      thresh= 1.796E-05 alpha_mix =  0.700 |ddv_scf|^2 =  7.726E-11

      iter #   5 total cpu time :    22.0 secs   av.it.:   8.1
      thresh= 8.790E-07 alpha_mix =  0.700 |ddv_scf|^2 =  1.937E-12

      iter #   6 total cpu time :    22.2 secs   av.it.:   8.1
      thresh= 1.392E-07 alpha_mix =  0.700 |ddv_scf|^2 =  3.173E-14

     End of self-consistent calculation

     Convergence has been achieved 


     Representation #  2 mode #   2

     Self-consistent Calculation

      iter #   1 total cpu time :    22.4 secs   av.it.:   5.7
      thresh= 1.000E-02 alpha_mix =  0.700 |ddv_scf|^2 =  1.908E-04

      iter #   2 total cpu time :    22.6 secs   av.it.:   8.6
      thresh= 1.381E-03 alpha_mix =  0.700 |ddv_scf|^2 =  5.943E-04

      iter #   3 total cpu time :    22.7 secs   av.it.:   7.5
      thresh= 2.438E-03 alpha_mix =  0.700 |ddv_scf|^2 =  8.015E-08

      iter #   4 total cpu time :    22.9 secs   av.it.:   8.5
      thresh= 2.831E-05 alpha_mix =  0.700 |ddv_scf|^2 =  6.088E-09

      iter #   5 total cpu time :    23.1 secs   av.it.:   8.7
      thresh= 7.803E-06 alpha_mix =  0.700 |ddv_scf|^2 =  7.332E-11

      iter #   6 total cpu time :    23.3 secs   av.it.:   8.6
      thresh= 8.563E-07 alpha_mix =  0.700 |ddv_scf|^2 =  1.399E-12

      iter #   7 total cpu time :    23.5 secs   av.it.:   8.0
      thresh= 1.183E-07 alpha_mix =  0.700 |ddv_scf|^2 =  3.335E-15

     End of self-consistent calculation

     Convergence has been achieved 


     Representation #  3 modes #   3  4

     Self-consistent Calculation

      iter #   1 total cpu time :    23.9 secs   av.it.:   4.7
      thresh= 1.000E-02 alpha_mix =  0.700 |ddv_scf|^2 =  2.064E-07

      iter #   2 total cpu time :    24.3 secs   av.it.:   9.2
      thresh= 4.543E-05 alpha_mix =  0.700 |ddv_scf|^2 =  1.793E-08

      iter #   3 total cpu time :    24.6 secs   av.it.:   8.6
      thresh= 1.339E-05 alpha_mix =  0.700 |ddv_scf|^2 =  3.034E-10

      iter #   4 total cpu time :    25.0 secs   av.it.:   9.2
      thresh= 1.742E-06 alpha_mix =  0.700 |ddv_scf|^2 =  3.761E-12

      iter #   5 total cpu time :    25.4 secs   av.it.:   9.1
      thresh= 1.939E-07 alpha_mix =  0.700 |ddv_scf|^2 =  2.087E-14

     End of self-consistent calculation

     Convergence has been achieved 


     Representation #  4 modes #   5  6

     Self-consistent Calculation

      iter #   1 total cpu time :    25.9 secs   av.it.:   4.9
      thresh= 1.000E-02 alpha_mix =  0.700 |ddv_scf|^2 =  5.330E-07

      iter #   2 total cpu time :    26.3 secs   av.it.:   9.9
      thresh= 7.300E-05 alpha_mix =  0.700 |ddv_scf|^2 =  4.167E-08

      iter #   3 total cpu time :    26.7 secs   av.it.:   9.8
      thresh= 2.041E-05 alpha_mix =  0.700 |ddv_scf|^2 =  2.402E-09

      iter #   4 total cpu time :    27.0 secs   av.it.:   9.0
      thresh= 4.901E-06 alpha_mix =  0.700 |ddv_scf|^2 =  3.837E-12

      iter #   5 total cpu time :    27.4 secs   av.it.:   9.0
      thresh= 1.959E-07 alpha_mix =  0.700 |ddv_scf|^2 =  1.541E-14

     End of self-consistent calculation

     Convergence has been achieved 

     Number of q in the star =    4
     List of q in the star:
          1   0.500000000  -0.500000000   0.500000000
          2   0.500000000   0.500000000   0.500000000
          3  -0.500000000   0.500000000   0.500000000
          4   0.500000000   0.500000000  -0.500000000

     Diagonalizing the dynamical matrix

     q = (    0.500000000  -0.500000000   0.500000000 ) 

 **************************************************************************
     freq (    1) =       4.542453 [THz] =     151.519919 [cm-1]
     freq (    2) =       4.542453 [THz] =     151.519919 [cm-1]
     freq (    3) =      11.406188 [THz] =     380.469483 [cm-1]
     freq (    4) =      11.575243 [THz] =     386.108561 [cm-1]
     freq (    5) =      14.141153 [THz] =     471.698089 [cm-1]
     freq (    6) =      14.141153 [THz] =     471.698089 [cm-1]
 **************************************************************************

     Calculation of q =    0.0000000   0.5000000   0.0000000

   Info: using nr1, nr2, nr3 values from input

   Info: using nr1, nr2, nr3 values from input

     Parallelization info
     --------------------
     sticks:   dense  smooth     PW     G-vecs:    dense   smooth      PW
     Min          67      67     27                  743      743     181
     Max          69      69     28                  744      744     182
     Sum         271     271    109                 2975     2975     725



     bravais-lattice index     =            2
     lattice parameter (alat)  =      10.4800  a.u.
     unit-cell volume          =     287.7556 (a.u.)^3
     number of atoms/cell      =            2
     number of atomic types    =            1
     number of electrons       =         8.00
     number of Kohn-Sham states=            4
     kinetic-energy cutoff     =      18.0000  Ry
     charge density cutoff     =      72.0000  Ry
     Exchange-correlation      = SLA  PW   PBE  PBE ( 1  4  3  4 0 0)

     celldm(1)=  10.480000  celldm(2)=   0.000000  celldm(3)=   0.000000
     celldm(4)=   0.000000  celldm(5)=   0.000000  celldm(6)=   0.000000

     crystal axes: (cart. coord. in units of alat)
               a(1) = (  -0.500000   0.000000   0.500000 )  
               a(2) = (   0.000000   0.500000   0.500000 )  
               a(3) = (  -0.500000   0.500000   0.000000 )  

     reciprocal axes: (cart. coord. in units 2 pi/alat)
               b(1) = ( -1.000000 -1.000000  1.000000 )  
               b(2) = (  1.000000  1.000000  1.000000 )  
               b(3) = ( -1.000000  1.000000 -1.000000 )  


     PseudoPot. # 1 for Si read from file:
     /home/max/quantum_espresso/qe-6.1/pseudo/si_pbe_v1.uspp.F.UPF.txt
     MD5 check sum: a056efeee980c13900f22a371efd63c1
     Pseudo is Ultrasoft + core correction, Zval =  4.0
     Generated by new atomic code, or converted to UPF format
     Using radial grid of  899 points,  6 beta functions with: 
                l(1) =   0
                l(2) =   0
                l(3) =   1
                l(4) =   1
                l(5) =   2
                l(6) =   2
     Q(r) pseudized with  8 coefficients,  rinner =    0.900   0.900   0.900
                                                       0.900   0.900

     atomic species   valence    mass     pseudopotential
        Si             4.00    28.08600     Si( 1.00)

     48 Sym. Ops., with inversion, found



   Cartesian axes

     site n.     atom                  positions (alat units)
         1           Si  tau(   1) = (   0.0000000   0.0000000   0.0000000  )
         2           Si  tau(   2) = (   0.2500000   0.2500000   0.2500000  )

     number of k points=    80
                       cart. coord. in units 2pi/alat
        k(    1) = (  -0.1250000   0.1250000   0.1250000), wk =   0.0312500
        k(    2) = (  -0.1250000   0.6250000   0.1250000), wk =   0.0000000
        k(    3) = (  -0.3750000   0.3750000  -0.1250000), wk =   0.0625000
        k(    4) = (  -0.3750000   0.8750000  -0.1250000), wk =   0.0000000
        k(    5) = (   0.3750000  -0.3750000   0.6250000), wk =   0.0625000
        k(    6) = (   0.3750000   0.1250000   0.6250000), wk =   0.0000000
        k(    7) = (   0.1250000  -0.1250000   0.3750000), wk =   0.0625000
        k(    8) = (   0.1250000   0.3750000   0.3750000), wk =   0.0000000
        k(    9) = (  -0.1250000   0.6250000   0.1250000), wk =   0.0312500
        k(   10) = (  -0.1250000   1.1250000   0.1250000), wk =   0.0000000
        k(   11) = (   0.6250000  -0.1250000   0.8750000), wk =   0.0625000
        k(   12) = (   0.6250000   0.3750000   0.8750000), wk =   0.0000000
        k(   13) = (   0.3750000   0.1250000   0.6250000), wk =   0.0625000
        k(   14) = (   0.3750000   0.6250000   0.6250000), wk =   0.0000000
        k(   15) = (  -0.1250000  -0.8750000   0.1250000), wk =   0.0312500
        k(   16) = (  -0.1250000  -0.3750000   0.1250000), wk =   0.0000000
        k(   17) = (  -0.3750000   0.3750000   0.3750000), wk =   0.0312500
        k(   18) = (  -0.3750000   0.8750000   0.3750000), wk =   0.0000000
        k(   19) = (   0.3750000  -0.3750000   1.1250000), wk =   0.0625000
        k(   20) = (   0.3750000   0.1250000   1.1250000), wk =   0.0000000
        k(   21) = (  -0.1250000  -0.1250000   0.1250000), wk =   0.0312500
        k(   22) = (  -0.1250000   0.3750000   0.1250000), wk =   0.0000000
        k(   23) = (   0.1250000  -0.3750000   0.3750000), wk =   0.0625000
        k(   24) = (   0.1250000   0.1250000   0.3750000), wk =   0.0000000
        k(   25) = (   0.3750000  -0.1250000   0.3750000), wk =   0.0312500
        k(   26) = (   0.3750000   0.3750000   0.3750000), wk =   0.0000000
        k(   27) = (   0.3750000   0.1250000   0.3750000), wk =   0.0312500
        k(   28) = (   0.3750000   0.6250000   0.3750000), wk =   0.0000000
        k(   29) = (  -0.6250000   0.3750000  -0.3750000), wk =   0.0625000
        k(   30) = (  -0.6250000   0.8750000  -0.3750000), wk =   0.0000000
        k(   31) = (  -0.3750000   0.6250000  -0.3750000), wk =   0.0312500
        k(   32) = (  -0.3750000   1.1250000  -0.3750000), wk =   0.0000000
        k(   33) = (  -0.3750000  -0.6250000  -0.3750000), wk =   0.0312500
        k(   34) = (  -0.3750000  -0.1250000  -0.3750000), wk =   0.0000000
        k(   35) = (  -0.3750000   0.1250000  -0.1250000), wk =   0.0625000
        k(   36) = (  -0.3750000   0.6250000  -0.1250000), wk =   0.0000000
        k(   37) = (  -0.1250000   0.3750000  -0.1250000), wk =   0.0312500
        k(   38) = (  -0.1250000   0.8750000  -0.1250000), wk =   0.0000000
        k(   39) = (  -0.1250000  -0.3750000  -0.1250000), wk =   0.0312500
        k(   40) = (  -0.1250000   0.1250000  -0.1250000), wk =   0.0000000
        k(   41) = (  -0.1250000  -0.6250000   0.1250000), wk =   0.0312500
        k(   42) = (  -0.1250000  -0.1250000   0.1250000), wk =   0.0000000
        k(   43) = (   0.6250000  -0.1250000  -0.1250000), wk =   0.0625000
        k(   44) = (   0.6250000   0.3750000  -0.1250000), wk =   0.0000000
        k(   45) = (   0.6250000   0.1250000   0.1250000), wk =   0.0625000
        k(   46) = (   0.6250000   0.6250000   0.1250000), wk =   0.0000000
        k(   47) = (  -0.8750000   0.1250000  -0.6250000), wk =   0.0625000
        k(   48) = (  -0.8750000   0.6250000  -0.6250000), wk =   0.0000000
        k(   49) = (  -0.1250000   0.6250000  -0.8750000), wk =   0.0625000
        k(   50) = (  -0.1250000   1.1250000  -0.8750000), wk =   0.0000000
        k(   51) = (  -0.1250000   0.8750000  -0.6250000), wk =   0.0625000
        k(   52) = (  -0.1250000   1.3750000  -0.6250000), wk =   0.0000000
        k(   53) = (  -0.1250000  -0.8750000  -0.6250000), wk =   0.0625000
        k(   54) = (  -0.1250000  -0.3750000  -0.6250000), wk =   0.0000000
        k(   55) = (   0.8750000  -0.6250000   0.1250000), wk =   0.0625000
        k(   56) = (   0.8750000  -0.1250000   0.1250000), wk =   0.0000000
        k(   57) = (  -0.6250000  -0.1250000  -0.3750000), wk =   0.0625000
        k(   58) = (  -0.6250000   0.3750000  -0.3750000), wk =   0.0000000
        k(   59) = (   0.1250000   0.3750000  -0.6250000), wk =   0.0625000
        k(   60) = (   0.1250000   0.8750000  -0.6250000), wk =   0.0000000
        k(   61) = (   0.1250000   0.6250000  -0.3750000), wk =   0.0625000
        k(   62) = (   0.1250000   1.1250000  -0.3750000), wk =   0.0000000
        k(   63) = (   0.1250000  -0.6250000  -0.3750000), wk =   0.0625000
        k(   64) = (   0.1250000  -0.1250000  -0.3750000), wk =   0.0000000
        k(   65) = (   0.6250000  -0.3750000  -0.1250000), wk =   0.0625000
        k(   66) = (   0.6250000   0.1250000  -0.1250000), wk =   0.0000000
        k(   67) = (  -0.1250000   0.8750000   0.1250000), wk =   0.0312500
        k(   68) = (  -0.1250000   1.3750000   0.1250000), wk =   0.0000000
        k(   69) = (  -0.8750000  -0.1250000  -0.1250000), wk =   0.0625000
        k(   70) = (  -0.8750000   0.3750000  -0.1250000), wk =   0.0000000
        k(   71) = (  -0.8750000   0.1250000   0.1250000), wk =   0.0625000
        k(   72) = (  -0.8750000   0.6250000   0.1250000), wk =   0.0000000
        k(   73) = (  -0.3750000  -0.3750000   0.3750000), wk =   0.0312500
        k(   74) = (  -0.3750000   0.1250000   0.3750000), wk =   0.0000000
        k(   75) = (  -1.1250000   0.3750000  -0.3750000), wk =   0.0625000
        k(   76) = (  -1.1250000   0.8750000  -0.3750000), wk =   0.0000000
        k(   77) = (  -0.3750000   1.1250000  -0.3750000), wk =   0.0312500
        k(   78) = (  -0.3750000   1.6250000  -0.3750000), wk =   0.0000000
        k(   79) = (  -0.3750000  -1.1250000  -0.3750000), wk =   0.0312500
        k(   80) = (  -0.3750000  -0.6250000  -0.3750000), wk =   0.0000000

     Dense  grid:     2975 G-vectors     FFT dimensions: (  24,  24,  24)

     Estimated max dynamical RAM per process >       0.43MB

     Estimated total allocated dynamical RAM >       1.71MB

     Check: negative/imaginary core charge=   -0.000006    0.000000

     The potential is recalculated from file :
     ./_ph0/silicon.10.48.save/charge-density.dat

     Starting wfc are    8 atomic wfcs

     Band Structure Calculation
     Davidson diagonalization with overlap

     ethr =  1.25E-10,  avg # of iterations = 11.7

     total cpu time spent up to now is        2.6 secs

     End of band structure calculation

          k =-0.1250 0.1250 0.1250 (   362 PWs)   bands (ev):

    -5.7787   3.9735   5.2890   5.2890

          k =-0.1250 0.6250 0.1250 (   367 PWs)   bands (ev):

    -4.2808   0.6795   3.0559   3.4850

          k =-0.3750 0.3750-0.1250 (   370 PWs)   bands (ev):

    -4.7942   1.0533   3.3809   4.8184

          k =-0.3750 0.8750-0.1250 (   378 PWs)   bands (ev):

    -2.7187  -1.2197   1.7782   2.8012

          k = 0.3750-0.3750 0.6250 (   375 PWs)   bands (ev):

    -3.7153  -0.9285   3.3799   4.0824

          k = 0.3750 0.1250 0.6250 (   372 PWs)   bands (ev):

    -3.8875  -0.1356   2.4344   3.7511

          k = 0.1250-0.1250 0.3750 (   364 PWs)   bands (ev):

    -5.2712   2.3756   4.3264   4.3674

          k = 0.1250 0.3750 0.3750 (   370 PWs)   bands (ev):

    -4.7942   1.0533   3.3809   4.8184

          k =-0.1250 0.6250 0.1250 (   367 PWs)   bands (ev):

    -4.2808   0.6795   3.0559   3.4850

          k =-0.1250 1.1250 0.1250 (   368 PWs)   bands (ev):

    -2.8679  -1.1310   2.3548   3.0343

          k = 0.6250-0.1250 0.8750 (   378 PWs)   bands (ev):

    -2.7187  -1.2197   1.7782   2.8012

          k = 0.6250 0.3750 0.8750 (   372 PWs)   bands (ev):

    -3.8875  -0.1356   2.4344   3.7511

          k = 0.3750 0.1250 0.6250 (   372 PWs)   bands (ev):

    -3.8875  -0.1356   2.4344   3.7511

          k = 0.3750 0.6250 0.6250 (   375 PWs)   bands (ev):

    -3.7153  -0.9285   3.3799   4.0824

          k =-0.1250-0.8750 0.1250 (   368 PWs)   bands (ev):

    -2.8679  -1.1310   2.3548   3.0343

          k =-0.1250-0.3750 0.1250 (   364 PWs)   bands (ev):

    -5.2712   2.3756   4.3264   4.3674

          k =-0.3750 0.3750 0.3750 (   362 PWs)   bands (ev):

    -4.3828  -0.1669   4.5244   4.5244

          k =-0.3750 0.8750 0.3750 (   374 PWs)   bands (ev):

    -3.2376  -0.8935   1.8183   3.7807

          k = 0.3750-0.3750 1.1250 (   374 PWs)   bands (ev):

    -3.2376  -0.8935   1.8183   3.7807

          k = 0.3750 0.1250 1.1250 (   378 PWs)   bands (ev):

    -2.7187  -1.2197   1.7782   2.8012

          k =-0.1250-0.1250 0.1250 (   362 PWs)   bands (ev):

    -5.7787   3.9735   5.2890   5.2890

          k =-0.1250 0.3750 0.1250 (   364 PWs)   bands (ev):

    -5.2712   2.3756   4.3264   4.3674

          k = 0.1250-0.3750 0.3750 (   370 PWs)   bands (ev):

    -4.7942   1.0533   3.3809   4.8184

          k = 0.1250 0.1250 0.3750 (   364 PWs)   bands (ev):

    -5.2712   2.3756   4.3264   4.3674

          k = 0.3750-0.1250 0.3750 (   370 PWs)   bands (ev):

    -4.7942   1.0533   3.3809   4.8184

          k = 0.3750 0.3750 0.3750 (   362 PWs)   bands (ev):

    -4.3828  -0.1669   4.5244   4.5244

          k = 0.3750 0.1250 0.3750 (   370 PWs)   bands (ev):

    -4.7942   1.0533   3.3809   4.8184

          k = 0.3750 0.6250 0.3750 (   375 PWs)   bands (ev):

    -3.7153  -0.9285   3.3799   4.0824

          k =-0.6250 0.3750-0.3750 (   375 PWs)   bands (ev):

    -3.7153  -0.9285   3.3799   4.0824

          k =-0.6250 0.8750-0.3750 (   372 PWs)   bands (ev):

    -3.8875  -0.1356   2.4344   3.7511

          k =-0.3750 0.6250-0.3750 (   375 PWs)   bands (ev):

    -3.7153  -0.9285   3.3799   4.0824

          k =-0.3750 1.1250-0.3750 (   374 PWs)   bands (ev):

    -3.2376  -0.8935   1.8183   3.7807

          k =-0.3750-0.6250-0.3750 (   375 PWs)   bands (ev):

    -3.7153  -0.9285   3.3799   4.0824

          k =-0.3750-0.1250-0.3750 (   370 PWs)   bands (ev):

    -4.7942   1.0533   3.3809   4.8184

          k =-0.3750 0.1250-0.1250 (   364 PWs)   bands (ev):

    -5.2712   2.3756   4.3264   4.3674

          k =-0.3750 0.6250-0.1250 (   372 PWs)   bands (ev):

    -3.8875  -0.1356   2.4344   3.7511

          k =-0.1250 0.3750-0.1250 (   364 PWs)   bands (ev):

    -5.2712   2.3756   4.3264   4.3674

          k =-0.1250 0.8750-0.1250 (   368 PWs)   bands (ev):

    -2.8679  -1.1310   2.3548   3.0343

          k =-0.1250-0.3750-0.1250 (   364 PWs)   bands (ev):

    -5.2712   2.3756   4.3264   4.3674

          k =-0.1250 0.1250-0.1250 (   362 PWs)   bands (ev):

    -5.7787   3.9735   5.2890   5.2890

          k =-0.1250-0.6250 0.1250 (   367 PWs)   bands (ev):

    -4.2808   0.6795   3.0559   3.4850

          k =-0.1250-0.1250 0.1250 (   362 PWs)   bands (ev):

    -5.7787   3.9735   5.2890   5.2890

          k = 0.6250-0.1250-0.1250 (   367 PWs)   bands (ev):

    -4.2808   0.6795   3.0559   3.4850

          k = 0.6250 0.3750-0.1250 (   372 PWs)   bands (ev):

    -3.8875  -0.1356   2.4344   3.7511

          k = 0.6250 0.1250 0.1250 (   367 PWs)   bands (ev):

    -4.2808   0.6795   3.0559   3.4850

          k = 0.6250 0.6250 0.1250 (   374 PWs)   bands (ev):

    -3.2376  -0.8935   1.8183   3.7807

          k =-0.8750 0.1250-0.6250 (   378 PWs)   bands (ev):

    -2.7187  -1.2197   1.7782   2.8012

          k =-0.8750 0.6250-0.6250 (   370 PWs)   bands (ev):

    -4.7942   1.0533   3.3809   4.8184

          k =-0.1250 0.6250-0.8750 (   378 PWs)   bands (ev):

    -2.7187  -1.2197   1.7782   2.8012

          k =-0.1250 1.1250-0.8750 (   368 PWs)   bands (ev):

    -2.8679  -1.1310   2.3548   3.0343

          k =-0.1250 0.8750-0.6250 (   378 PWs)   bands (ev):

    -2.7187  -1.2197   1.7782   2.8012

          k =-0.1250 1.3750-0.6250 (   374 PWs)   bands (ev):

    -3.2376  -0.8935   1.8183   3.7807

          k =-0.1250-0.8750-0.6250 (   378 PWs)   bands (ev):

    -2.7187  -1.2197   1.7782   2.8012

          k =-0.1250-0.3750-0.6250 (   372 PWs)   bands (ev):

    -3.8875  -0.1356   2.4344   3.7511

          k = 0.8750-0.6250 0.1250 (   378 PWs)   bands (ev):

    -2.7187  -1.2197   1.7782   2.8012

          k = 0.8750-0.1250 0.1250 (   368 PWs)   bands (ev):

    -2.8679  -1.1310   2.3548   3.0343

          k =-0.6250-0.1250-0.3750 (   372 PWs)   bands (ev):

    -3.8875  -0.1356   2.4344   3.7511

          k =-0.6250 0.3750-0.3750 (   375 PWs)   bands (ev):

    -3.7153  -0.9285   3.3799   4.0824

          k = 0.1250 0.3750-0.6250 (   372 PWs)   bands (ev):

    -3.8875  -0.1356   2.4344   3.7511

          k = 0.1250 0.8750-0.6250 (   378 PWs)   bands (ev):

    -2.7187  -1.2197   1.7782   2.8012

          k = 0.1250 0.6250-0.3750 (   372 PWs)   bands (ev):

    -3.8875  -0.1356   2.4344   3.7511

          k = 0.1250 1.1250-0.3750 (   378 PWs)   bands (ev):

    -2.7187  -1.2197   1.7782   2.8012

          k = 0.1250-0.6250-0.3750 (   372 PWs)   bands (ev):

    -3.8875  -0.1356   2.4344   3.7511

          k = 0.1250-0.1250-0.3750 (   364 PWs)   bands (ev):

    -5.2712   2.3756   4.3264   4.3674

          k = 0.6250-0.3750-0.1250 (   372 PWs)   bands (ev):

    -3.8875  -0.1356   2.4344   3.7511

          k = 0.6250 0.1250-0.1250 (   367 PWs)   bands (ev):

    -4.2808   0.6795   3.0559   3.4850

          k =-0.1250 0.8750 0.1250 (   368 PWs)   bands (ev):

    -2.8679  -1.1310   2.3548   3.0343

          k =-0.1250 1.3750 0.1250 (   367 PWs)   bands (ev):

    -4.2808   0.6795   3.0559   3.4850

          k =-0.8750-0.1250-0.1250 (   368 PWs)   bands (ev):

    -2.8679  -1.1310   2.3548   3.0343

          k =-0.8750 0.3750-0.1250 (   378 PWs)   bands (ev):

    -2.7187  -1.2197   1.7782   2.8012

          k =-0.8750 0.1250 0.1250 (   368 PWs)   bands (ev):

    -2.8679  -1.1310   2.3548   3.0343

          k =-0.8750 0.6250 0.1250 (   378 PWs)   bands (ev):

    -2.7187  -1.2197   1.7782   2.8012

          k =-0.3750-0.3750 0.3750 (   362 PWs)   bands (ev):

    -4.3828  -0.1669   4.5244   4.5244

          k =-0.3750 0.1250 0.3750 (   370 PWs)   bands (ev):

    -4.7942   1.0533   3.3809   4.8184

          k =-1.1250 0.3750-0.3750 (   374 PWs)   bands (ev):

    -3.2376  -0.8935   1.8183   3.7807

          k =-1.1250 0.8750-0.3750 (   367 PWs)   bands (ev):

    -4.2808   0.6795   3.0559   3.4850

          k =-0.3750 1.1250-0.3750 (   374 PWs)   bands (ev):

    -3.2376  -0.8935   1.8183   3.7807

          k =-0.3750 1.6250-0.3750 (   362 PWs)   bands (ev):

    -4.3828  -0.1669   4.5244   4.5244

          k =-0.3750-1.1250-0.3750 (   374 PWs)   bands (ev):

    -3.2376  -0.8935   1.8183   3.7807

          k =-0.3750-0.6250-0.3750 (   375 PWs)   bands (ev):

    -3.7153  -0.9285   3.3799   4.0824

     highest occupied level (ev):     5.2890

     Writing output data file silicon.10.48.save

                                                                                

     bravais-lattice index     =            2
     lattice parameter (alat)  =      10.4800  a.u.
     unit-cell volume          =     287.7556 (a.u.)^3
     number of atoms/cell      =            2
     number of atomic types    =            1
     kinetic-energy cut-off    =      18.0000  Ry
     charge density cut-off    =      72.0000  Ry
     convergence threshold     =      1.0E-12
     beta                      =       0.7000
     number of iterations used =            4
     Exchange-correlation      = SLA  PW   PBE  PBE ( 1  4  3  4 0 0)


     celldm(1)=   10.48000  celldm(2)=    0.00000  celldm(3)=    0.00000
     celldm(4)=    0.00000  celldm(5)=    0.00000  celldm(6)=    0.00000

     crystal axes: (cart. coord. in units of alat)
               a(1) = ( -0.5000  0.0000  0.5000 )  
               a(2) = (  0.0000  0.5000  0.5000 )  
               a(3) = ( -0.5000  0.5000  0.0000 )  

     reciprocal axes: (cart. coord. in units 2 pi/alat)
               b(1) = ( -1.0000 -1.0000  1.0000 )  
               b(2) = (  1.0000  1.0000  1.0000 )  
               b(3) = ( -1.0000  1.0000 -1.0000 )  


     Atoms inside the unit cell: 

     Cartesian axes

     site n.  atom      mass           positions (alat units)
        1     Si  28.0860   tau(    1) = (    0.00000    0.00000    0.00000  )
        2     Si  28.0860   tau(    2) = (    0.25000    0.25000    0.25000  )

     Computing dynamical matrix for 
                    q = (   0.0000000   0.5000000   0.0000000 )

      8 Sym.Ops. (no q -> -q+G )


     G cutoff =  200.3066  (    744 G-vectors)     FFT grid: ( 24, 24, 24)
     number of k points=    80

     PseudoPot. # 1 for Si read from file:
     /home/max/quantum_espresso/qe-6.1/pseudo/si_pbe_v1.uspp.F.UPF.txt
     MD5 check sum: a056efeee980c13900f22a371efd63c1
     Pseudo is Ultrasoft + core correction, Zval =  4.0
     Generated by new atomic code, or converted to UPF format
     Using radial grid of  899 points,  6 beta functions with: 
                l(1) =   0
                l(2) =   0
                l(3) =   1
                l(4) =   1
                l(5) =   2
                l(6) =   2
     Q(r) pseudized with  8 coefficients,  rinner =    0.900   0.900   0.900
                                                       0.900   0.900

     Mode symmetry, C_4v (4mm)  point group:


     Atomic displacements:
     There are   4 irreducible representations

     Representation     1      1 modes -A_1  G_1 D_1  To be done

     Representation     2      1 modes -B_2  G_4 D_2'  To be done

     Representation     3      2 modes -E    G_5 D_5  To be done

     Representation     4      2 modes -E    G_5 D_5  To be done



     Alpha used in Ewald sum =   0.7000
     PHONON       :    27.05s CPU        28.57s WALL



     Representation #  1 mode #   1

     Self-consistent Calculation

      iter #   1 total cpu time :    28.8 secs   av.it.:   5.8
      thresh= 1.000E-02 alpha_mix =  0.700 |ddv_scf|^2 =  1.657E-03

      iter #   2 total cpu time :    29.0 secs   av.it.:   8.2
      thresh= 4.070E-03 alpha_mix =  0.700 |ddv_scf|^2 =  2.228E-02

      iter #   3 total cpu time :    29.2 secs   av.it.:   6.8
      thresh= 1.000E-02 alpha_mix =  0.700 |ddv_scf|^2 =  9.021E-08

      iter #   4 total cpu time :    29.4 secs   av.it.:   8.5
      thresh= 3.004E-05 alpha_mix =  0.700 |ddv_scf|^2 =  9.878E-09

      iter #   5 total cpu time :    29.8 secs   av.it.:   8.0
      thresh= 9.939E-06 alpha_mix =  0.700 |ddv_scf|^2 =  3.611E-10

      iter #   6 total cpu time :    30.0 secs   av.it.:   8.4
      thresh= 1.900E-06 alpha_mix =  0.700 |ddv_scf|^2 =  1.007E-12

      iter #   7 total cpu time :    30.3 secs   av.it.:   8.6
      thresh= 1.003E-07 alpha_mix =  0.700 |ddv_scf|^2 =  2.262E-13

     End of self-consistent calculation

     Convergence has been achieved 


     Representation #  2 mode #   2

     Self-consistent Calculation

      iter #   1 total cpu time :    30.5 secs   av.it.:   4.9
      thresh= 1.000E-02 alpha_mix =  0.700 |ddv_scf|^2 =  3.066E-06

      iter #   2 total cpu time :    30.7 secs   av.it.:   9.1
      thresh= 1.751E-04 alpha_mix =  0.700 |ddv_scf|^2 =  8.050E-07

      iter #   3 total cpu time :    30.9 secs   av.it.:   8.7
      thresh= 8.972E-05 alpha_mix =  0.700 |ddv_scf|^2 =  2.344E-08

      iter #   4 total cpu time :    31.2 secs   av.it.:   8.6
      thresh= 1.531E-05 alpha_mix =  0.700 |ddv_scf|^2 =  5.029E-10

      iter #   5 total cpu time :    31.4 secs   av.it.:   8.9
      thresh= 2.243E-06 alpha_mix =  0.700 |ddv_scf|^2 =  4.143E-12

      iter #   6 total cpu time :    31.8 secs   av.it.:   8.3
      thresh= 2.035E-07 alpha_mix =  0.700 |ddv_scf|^2 =  4.950E-14

     End of self-consistent calculation

     Convergence has been achieved 


     Representation #  3 modes #   3  4

     Self-consistent Calculation

      iter #   1 total cpu time :    32.2 secs   av.it.:   5.0
      thresh= 1.000E-02 alpha_mix =  0.700 |ddv_scf|^2 =  5.657E-07

      iter #   2 total cpu time :    32.7 secs   av.it.:  10.0
      thresh= 7.521E-05 alpha_mix =  0.700 |ddv_scf|^2 =  7.052E-08

      iter #   3 total cpu time :    33.2 secs   av.it.:   9.8
      thresh= 2.655E-05 alpha_mix =  0.700 |ddv_scf|^2 =  3.503E-09

      iter #   4 total cpu time :    33.9 secs   av.it.:   9.1
      thresh= 5.919E-06 alpha_mix =  0.700 |ddv_scf|^2 =  5.427E-12

      iter #   5 total cpu time :    34.3 secs   av.it.:   9.5
      thresh= 2.330E-07 alpha_mix =  0.700 |ddv_scf|^2 =  1.723E-13

     End of self-consistent calculation

     Convergence has been achieved 


     Representation #  4 modes #   5  6

     Self-consistent Calculation

      iter #   1 total cpu time :    34.7 secs   av.it.:   5.0
      thresh= 1.000E-02 alpha_mix =  0.700 |ddv_scf|^2 =  5.474E-07

      iter #   2 total cpu time :    35.2 secs   av.it.:  10.0
      thresh= 7.398E-05 alpha_mix =  0.700 |ddv_scf|^2 =  6.955E-08

      iter #   3 total cpu time :    35.9 secs   av.it.:   9.8
      thresh= 2.637E-05 alpha_mix =  0.700 |ddv_scf|^2 =  4.433E-09

      iter #   4 total cpu time :    36.4 secs   av.it.:   9.2
      thresh= 6.658E-06 alpha_mix =  0.700 |ddv_scf|^2 =  8.819E-12

      iter #   5 total cpu time :    36.9 secs   av.it.:   9.6
      thresh= 2.970E-07 alpha_mix =  0.700 |ddv_scf|^2 =  2.873E-14

     End of self-consistent calculation

     Convergence has been achieved 

     Number of q in the star =    6
     List of q in the star:
          1   0.000000000   0.500000000   0.000000000
          2   0.000000000  -0.500000000   0.000000000
          3   0.500000000   0.000000000   0.000000000
          4   0.000000000   0.000000000   0.500000000
          5   0.000000000   0.000000000  -0.500000000
          6  -0.500000000   0.000000000   0.000000000

     Diagonalizing the dynamical matrix

     q = (    0.000000000   0.500000000   0.000000000 ) 

 **************************************************************************
     freq (    1) =       3.853217 [THz] =     128.529473 [cm-1]
     freq (    2) =       3.853217 [THz] =     128.529473 [cm-1]
     freq (    3) =       6.619444 [THz] =     220.800870 [cm-1]
     freq (    4) =      13.537369 [THz] =     451.558018 [cm-1]
     freq (    5) =      13.537369 [THz] =     451.558018 [cm-1]
     freq (    6) =      14.251318 [THz] =     475.372811 [cm-1]
 **************************************************************************

     Mode symmetry, C_4v (4mm)  point group:

     freq (  1 -  2) =        128.5  [cm-1]   --> E    G_5 D_5       
     freq (  3 -  3) =        220.8  [cm-1]   --> A_1  G_1 D_1       
     freq (  4 -  5) =        451.6  [cm-1]   --> E    G_5 D_5       
     freq (  6 -  6) =        475.4  [cm-1]   --> B_2  G_4 D_2'      

     Calculation of q =    0.7500000  -0.2500000   0.7500000

   Info: using nr1, nr2, nr3 values from input

   Info: using nr1, nr2, nr3 values from input

     Parallelization info
     --------------------
     sticks:   dense  smooth     PW     G-vecs:    dense   smooth      PW
     Min          67      67     30                  743      743     216
     Max          68      68     31                  744      744     218
     Sum         271     271    121                 2975     2975     869



     bravais-lattice index     =            2
     lattice parameter (alat)  =      10.4800  a.u.
     unit-cell volume          =     287.7556 (a.u.)^3
     number of atoms/cell      =            2
     number of atomic types    =            1
     number of electrons       =         8.00
     number of Kohn-Sham states=            4
     kinetic-energy cutoff     =      18.0000  Ry
     charge density cutoff     =      72.0000  Ry
     Exchange-correlation      = SLA  PW   PBE  PBE ( 1  4  3  4 0 0)

     celldm(1)=  10.480000  celldm(2)=   0.000000  celldm(3)=   0.000000
     celldm(4)=   0.000000  celldm(5)=   0.000000  celldm(6)=   0.000000

     crystal axes: (cart. coord. in units of alat)
               a(1) = (  -0.500000   0.000000   0.500000 )  
               a(2) = (   0.000000   0.500000   0.500000 )  
               a(3) = (  -0.500000   0.500000   0.000000 )  

     reciprocal axes: (cart. coord. in units 2 pi/alat)
               b(1) = ( -1.000000 -1.000000  1.000000 )  
               b(2) = (  1.000000  1.000000  1.000000 )  
               b(3) = ( -1.000000  1.000000 -1.000000 )  


     PseudoPot. # 1 for Si read from file:
     /home/max/quantum_espresso/qe-6.1/pseudo/si_pbe_v1.uspp.F.UPF.txt
     MD5 check sum: a056efeee980c13900f22a371efd63c1
     Pseudo is Ultrasoft + core correction, Zval =  4.0
     Generated by new atomic code, or converted to UPF format
     Using radial grid of  899 points,  6 beta functions with: 
                l(1) =   0
                l(2) =   0
                l(3) =   1
                l(4) =   1
                l(5) =   2
                l(6) =   2
     Q(r) pseudized with  8 coefficients,  rinner =    0.900   0.900   0.900
                                                       0.900   0.900

     atomic species   valence    mass     pseudopotential
        Si             4.00    28.08600     Si( 1.00)

     48 Sym. Ops., with inversion, found



   Cartesian axes

     site n.     atom                  positions (alat units)
         1           Si  tau(   1) = (   0.0000000   0.0000000   0.0000000  )
         2           Si  tau(   2) = (   0.2500000   0.2500000   0.2500000  )

     number of k points=   288

     Number of k-points >= 100: set verbosity='high' to print them.

     Dense  grid:     2975 G-vectors     FFT dimensions: (  24,  24,  24)

     Estimated max dynamical RAM per process >       0.43MB

     Estimated total allocated dynamical RAM >       1.71MB

     Check: negative/imaginary core charge=   -0.000006    0.000000

     The potential is recalculated from file :
     ./_ph0/silicon.10.48.save/charge-density.dat

     Starting wfc are    8 atomic wfcs

     Band Structure Calculation
     Davidson diagonalization with overlap

     ethr =  1.25E-10,  avg # of iterations = 11.6

     total cpu time spent up to now is        5.1 secs

     End of band structure calculation

     Number of k-points >= 100: set verbosity='high' to print the bands.

     highest occupied level (ev):     5.2890

     Writing output data file silicon.10.48.save

                                                                                

     bravais-lattice index     =            2
     lattice parameter (alat)  =      10.4800  a.u.
     unit-cell volume          =     287.7556 (a.u.)^3
     number of atoms/cell      =            2
     number of atomic types    =            1
     kinetic-energy cut-off    =      18.0000  Ry
     charge density cut-off    =      72.0000  Ry
     convergence threshold     =      1.0E-12
     beta                      =       0.7000
     number of iterations used =            4
     Exchange-correlation      = SLA  PW   PBE  PBE ( 1  4  3  4 0 0)


     celldm(1)=   10.48000  celldm(2)=    0.00000  celldm(3)=    0.00000
     celldm(4)=    0.00000  celldm(5)=    0.00000  celldm(6)=    0.00000

     crystal axes: (cart. coord. in units of alat)
               a(1) = ( -0.5000  0.0000  0.5000 )  
               a(2) = (  0.0000  0.5000  0.5000 )  
               a(3) = ( -0.5000  0.5000  0.0000 )  

     reciprocal axes: (cart. coord. in units 2 pi/alat)
               b(1) = ( -1.0000 -1.0000  1.0000 )  
               b(2) = (  1.0000  1.0000  1.0000 )  
               b(3) = ( -1.0000  1.0000 -1.0000 )  


     Atoms inside the unit cell: 

     Cartesian axes

     site n.  atom      mass           positions (alat units)
        1     Si  28.0860   tau(    1) = (    0.00000    0.00000    0.00000  )
        2     Si  28.0860   tau(    2) = (    0.25000    0.25000    0.25000  )

     Computing dynamical matrix for 
                    q = (   0.7500000  -0.2500000   0.7500000 )

      2 Sym.Ops. (no q -> -q+G )


     G cutoff =  200.3066  (    744 G-vectors)     FFT grid: ( 24, 24, 24)
     number of k points=   288

     PseudoPot. # 1 for Si read from file:
     /home/max/quantum_espresso/qe-6.1/pseudo/si_pbe_v1.uspp.F.UPF.txt
     MD5 check sum: a056efeee980c13900f22a371efd63c1
     Pseudo is Ultrasoft + core correction, Zval =  4.0
     Generated by new atomic code, or converted to UPF format
     Using radial grid of  899 points,  6 beta functions with: 
                l(1) =   0
                l(2) =   0
                l(3) =   1
                l(4) =   1
                l(5) =   2
                l(6) =   2
     Q(r) pseudized with  8 coefficients,  rinner =    0.900   0.900   0.900
                                                       0.900   0.900

     Mode symmetry, C_s (m)     point group:


     Atomic displacements:
     There are   6 irreducible representations

     Representation     1      1 modes -A'  To be done

     Representation     2      1 modes -A'  To be done

     Representation     3      1 modes -A'  To be done

     Representation     4      1 modes -A'  To be done

     Representation     5      1 modes -A''  To be done

     Representation     6      1 modes -A''  To be done



     Alpha used in Ewald sum =   0.7000
     PHONON       :    37.93s CPU        40.22s WALL



     Representation #  1 mode #   1

     Self-consistent Calculation

      iter #   1 total cpu time :    40.8 secs   av.it.:   5.3
      thresh= 1.000E-02 alpha_mix =  0.700 |ddv_scf|^2 =  3.431E-05

      iter #   2 total cpu time :    41.8 secs   av.it.:   9.1
      thresh= 5.857E-04 alpha_mix =  0.700 |ddv_scf|^2 =  9.204E-05

      iter #   3 total cpu time :    42.6 secs   av.it.:   7.9
      thresh= 9.593E-04 alpha_mix =  0.700 |ddv_scf|^2 =  6.520E-07

      iter #   4 total cpu time :    43.4 secs   av.it.:   8.8
      thresh= 8.075E-05 alpha_mix =  0.700 |ddv_scf|^2 =  3.775E-08

      iter #   5 total cpu time :    44.4 secs   av.it.:   8.7
      thresh= 1.943E-05 alpha_mix =  0.700 |ddv_scf|^2 =  4.418E-09

      iter #   6 total cpu time :    45.2 secs   av.it.:   8.8
      thresh= 6.647E-06 alpha_mix =  0.700 |ddv_scf|^2 =  5.717E-11

      iter #   7 total cpu time :    46.2 secs   av.it.:   9.1
      thresh= 7.561E-07 alpha_mix =  0.700 |ddv_scf|^2 =  2.204E-12

      iter #   8 total cpu time :    47.1 secs   av.it.:   9.0
      thresh= 1.485E-07 alpha_mix =  0.700 |ddv_scf|^2 =  2.398E-13

     End of self-consistent calculation

     Convergence has been achieved 


     Representation #  2 mode #   2

     Self-consistent Calculation

      iter #   1 total cpu time :    47.9 secs   av.it.:   5.4
      thresh= 1.000E-02 alpha_mix =  0.700 |ddv_scf|^2 =  6.052E-05

      iter #   2 total cpu time :    48.7 secs   av.it.:   9.0
      thresh= 7.779E-04 alpha_mix =  0.700 |ddv_scf|^2 =  1.754E-04

      iter #   3 total cpu time :    49.5 secs   av.it.:   7.8
      thresh= 1.324E-03 alpha_mix =  0.700 |ddv_scf|^2 =  4.753E-07

      iter #   4 total cpu time :    50.5 secs   av.it.:   8.8
      thresh= 6.894E-05 alpha_mix =  0.700 |ddv_scf|^2 =  3.636E-08

      iter #   5 total cpu time :    51.3 secs   av.it.:   8.7
      thresh= 1.907E-05 alpha_mix =  0.700 |ddv_scf|^2 =  6.731E-09

      iter #   6 total cpu time :    52.3 secs   av.it.:   8.8
      thresh= 8.204E-06 alpha_mix =  0.700 |ddv_scf|^2 =  5.123E-11

      iter #   7 total cpu time :    53.1 secs   av.it.:   9.1
      thresh= 7.158E-07 alpha_mix =  0.700 |ddv_scf|^2 =  1.730E-12

      iter #   8 total cpu time :    54.1 secs   av.it.:   9.0
      thresh= 1.315E-07 alpha_mix =  0.700 |ddv_scf|^2 =  4.392E-13

     End of self-consistent calculation

     Convergence has been achieved 


     Representation #  3 mode #   3

     Self-consistent Calculation

      iter #   1 total cpu time :    54.8 secs   av.it.:   5.3
      thresh= 1.000E-02 alpha_mix =  0.700 |ddv_scf|^2 =  4.735E-05

      iter #   2 total cpu time :    55.8 secs   av.it.:   9.0
      thresh= 6.881E-04 alpha_mix =  0.700 |ddv_scf|^2 =  1.279E-04

      iter #   3 total cpu time :    56.5 secs   av.it.:   7.8
      thresh= 1.131E-03 alpha_mix =  0.700 |ddv_scf|^2 =  8.021E-07

      iter #   4 total cpu time :    57.3 secs   av.it.:   8.6
      thresh= 8.956E-05 alpha_mix =  0.700 |ddv_scf|^2 =  3.675E-08

      iter #   5 total cpu time :    58.3 secs   av.it.:   8.8
      thresh= 1.917E-05 alpha_mix =  0.700 |ddv_scf|^2 =  7.091E-09

      iter #   6 total cpu time :    59.1 secs   av.it.:   8.8
      thresh= 8.421E-06 alpha_mix =  0.700 |ddv_scf|^2 =  2.865E-11

      iter #   7 total cpu time :    60.1 secs   av.it.:   9.1
      thresh= 5.352E-07 alpha_mix =  0.700 |ddv_scf|^2 =  1.207E-12

      iter #   8 total cpu time :    61.0 secs   av.it.:   9.0
      thresh= 1.099E-07 alpha_mix =  0.700 |ddv_scf|^2 =  5.116E-13

     End of self-consistent calculation

     Convergence has been achieved 


     Representation #  4 mode #   4

     Self-consistent Calculation

      iter #   1 total cpu time :    61.8 secs   av.it.:   5.2
      thresh= 1.000E-02 alpha_mix =  0.700 |ddv_scf|^2 =  2.115E-05

      iter #   2 total cpu time :    62.6 secs   av.it.:   9.2
[...]
        k(   59) = (  -0.8750000   0.1250000  -0.1250000), wk =   0.0625000
        k(   60) = (  -1.3750000  -0.8750000  -0.1250000), wk =   0.0000000
        k(   61) = (  -1.1250000   0.3750000  -0.3750000), wk =   0.0625000
        k(   62) = (  -1.6250000  -0.6250000  -0.3750000), wk =   0.0000000
        k(   63) = (  -0.3750000   0.3750000   1.1250000), wk =   0.0625000
        k(   64) = (  -0.8750000  -0.6250000   1.1250000), wk =   0.0000000

     Dense  grid:     2975 G-vectors     FFT dimensions: (  24,  24,  24)

     Estimated max dynamical RAM per process >       0.43MB

     Estimated total allocated dynamical RAM >       1.71MB

     Check: negative/imaginary core charge=   -0.000006    0.000000

     The potential is recalculated from file :
     ./_ph0/silicon.10.48.save/charge-density.dat

     Starting wfc are    8 atomic wfcs

     Band Structure Calculation
     Davidson diagonalization with overlap

     ethr =  1.25E-10,  avg # of iterations = 11.6

     total cpu time spent up to now is        7.7 secs

     End of band structure calculation

          k =-0.1250 0.1250 0.1250 (   362 PWs)   bands (ev):

    -5.7787   3.9735   5.2890   5.2890

          k =-0.6250-0.8750 0.1250 (   378 PWs)   bands (ev):

    -2.7187  -1.2197   1.7782   2.8012

          k =-0.3750 0.3750-0.1250 (   370 PWs)   bands (ev):

    -4.7942   1.0533   3.3809   4.8184

          k =-0.8750-0.6250-0.1250 (   378 PWs)   bands (ev):

    -2.7187  -1.2197   1.7782   2.8012

          k = 0.3750-0.3750 0.6250 (   375 PWs)   bands (ev):

    -3.7153  -0.9285   3.3799   4.0824

          k =-0.1250-1.3750 0.6250 (   374 PWs)   bands (ev):

    -3.2376  -0.8935   1.8183   3.7807

          k = 0.1250-0.1250 0.3750 (   364 PWs)   bands (ev):

    -5.2712   2.3756   4.3264   4.3674

          k =-0.3750-1.1250 0.3750 (   374 PWs)   bands (ev):

    -3.2376  -0.8935   1.8183   3.7807

          k =-0.1250 0.6250 0.1250 (   367 PWs)   bands (ev):

    -4.2808   0.6795   3.0559   3.4850

          k =-0.6250-0.3750 0.1250 (   372 PWs)   bands (ev):

    -3.8875  -0.1356   2.4344   3.7511

          k = 0.6250-0.1250 0.8750 (   378 PWs)   bands (ev):

    -2.7187  -1.2197   1.7782   2.8012

          k = 0.1250-1.1250 0.8750 (   368 PWs)   bands (ev):

    -2.8679  -1.1310   2.3548   3.0343

          k = 0.3750 0.1250 0.6250 (   372 PWs)   bands (ev):

    -3.8875  -0.1356   2.4344   3.7511

          k =-0.1250-0.8750 0.6250 (   378 PWs)   bands (ev):

    -2.7187  -1.2197   1.7782   2.8012

          k =-0.1250-0.8750 0.1250 (   368 PWs)   bands (ev):

    -2.8679  -1.1310   2.3548   3.0343

          k =-0.6250-1.8750 0.1250 (   367 PWs)   bands (ev):

    -4.2808   0.6795   3.0559   3.4850

          k =-0.3750 0.3750 0.3750 (   362 PWs)   bands (ev):

    -4.3828  -0.1669   4.5244   4.5244

          k =-0.8750-0.6250 0.3750 (   372 PWs)   bands (ev):

    -3.8875  -0.1356   2.4344   3.7511

          k = 0.3750-0.3750 1.1250 (   374 PWs)   bands (ev):

    -3.2376  -0.8935   1.8183   3.7807

          k =-0.1250-1.3750 1.1250 (   378 PWs)   bands (ev):

    -2.7187  -1.2197   1.7782   2.8012

          k = 0.1250-0.3750 0.3750 (   370 PWs)   bands (ev):

    -4.7942   1.0533   3.3809   4.8184

          k =-0.3750-1.3750 0.3750 (   375 PWs)   bands (ev):

    -3.7153  -0.9285   3.3799   4.0824

          k = 0.3750-0.3750-0.1250 (   370 PWs)   bands (ev):

    -4.7942   1.0533   3.3809   4.8184

          k =-0.1250-1.3750-0.1250 (   367 PWs)   bands (ev):

    -4.2808   0.6795   3.0559   3.4850

          k =-0.6250 0.3750-0.3750 (   375 PWs)   bands (ev):

    -3.7153  -0.9285   3.3799   4.0824

          k =-1.1250-0.6250-0.3750 (   372 PWs)   bands (ev):

    -3.8875  -0.1356   2.4344   3.7511

          k =-0.3750 0.3750 0.6250 (   375 PWs)   bands (ev):

    -3.7153  -0.9285   3.3799   4.0824

          k =-0.8750-0.6250 0.6250 (   370 PWs)   bands (ev):

    -4.7942   1.0533   3.3809   4.8184

          k =-0.3750 0.1250-0.1250 (   364 PWs)   bands (ev):

    -5.2712   2.3756   4.3264   4.3674

          k =-0.8750-0.8750-0.1250 (   368 PWs)   bands (ev):

    -2.8679  -1.1310   2.3548   3.0343

          k =-0.1250 0.1250 0.3750 (   364 PWs)   bands (ev):

    -5.2712   2.3756   4.3264   4.3674

          k =-0.6250-0.8750 0.3750 (   372 PWs)   bands (ev):

    -3.8875  -0.1356   2.4344   3.7511

          k = 0.1250 0.6250-0.1250 (   367 PWs)   bands (ev):

    -4.2808   0.6795   3.0559   3.4850

          k =-0.3750-0.3750-0.1250 (   370 PWs)   bands (ev):

    -4.7942   1.0533   3.3809   4.8184

          k = 0.6250 0.1250-0.1250 (   367 PWs)   bands (ev):

    -4.2808   0.6795   3.0559   3.4850

          k = 0.1250-0.8750-0.1250 (   368 PWs)   bands (ev):

    -2.8679  -1.1310   2.3548   3.0343

          k =-0.8750 0.1250-0.6250 (   378 PWs)   bands (ev):

    -2.7187  -1.2197   1.7782   2.8012

          k =-1.3750-0.8750-0.6250 (   370 PWs)   bands (ev):

    -4.7942   1.0533   3.3809   4.8184

          k = 0.8750-0.1250 0.6250 (   378 PWs)   bands (ev):

    -2.7187  -1.2197   1.7782   2.8012

          k = 0.3750-1.1250 0.6250 (   372 PWs)   bands (ev):

    -3.8875  -0.1356   2.4344   3.7511

          k =-0.6250 0.1250 0.8750 (   378 PWs)   bands (ev):

    -2.7187  -1.2197   1.7782   2.8012

          k =-1.1250-0.8750 0.8750 (   362 PWs)   bands (ev):

    -5.7787   3.9735   5.2890   5.2890

          k =-0.1250 0.8750 0.6250 (   378 PWs)   bands (ev):

    -2.7187  -1.2197   1.7782   2.8012

          k =-0.6250-0.1250 0.6250 (   374 PWs)   bands (ev):

    -3.2376  -0.8935   1.8183   3.7807

          k = 0.1250 0.8750-0.6250 (   378 PWs)   bands (ev):

    -2.7187  -1.2197   1.7782   2.8012

          k =-0.3750-0.1250-0.6250 (   372 PWs)   bands (ev):

    -3.8875  -0.1356   2.4344   3.7511

          k =-0.6250-0.1250-0.3750 (   372 PWs)   bands (ev):

    -3.8875  -0.1356   2.4344   3.7511

          k =-1.1250-1.1250-0.3750 (   367 PWs)   bands (ev):

    -4.2808   0.6795   3.0559   3.4850

          k = 0.6250 0.1250 0.3750 (   372 PWs)   bands (ev):

    -3.8875  -0.1356   2.4344   3.7511

          k = 0.1250-0.8750 0.3750 (   378 PWs)   bands (ev):

    -2.7187  -1.2197   1.7782   2.8012

          k =-0.3750-0.1250 0.6250 (   372 PWs)   bands (ev):

    -3.8875  -0.1356   2.4344   3.7511

          k =-0.8750-1.1250 0.6250 (   364 PWs)   bands (ev):

    -5.2712   2.3756   4.3264   4.3674

          k = 0.1250 0.6250 0.3750 (   372 PWs)   bands (ev):

    -3.8875  -0.1356   2.4344   3.7511

          k =-0.3750-0.3750 0.3750 (   362 PWs)   bands (ev):

    -4.3828  -0.1669   4.5244   4.5244

          k =-0.1250 0.6250-0.3750 (   372 PWs)   bands (ev):

    -3.8875  -0.1356   2.4344   3.7511

          k =-0.6250-0.3750-0.3750 (   375 PWs)   bands (ev):

    -3.7153  -0.9285   3.3799   4.0824

          k = 0.1250-0.8750-0.1250 (   368 PWs)   bands (ev):

    -2.8679  -1.1310   2.3548   3.0343

          k =-0.3750-1.8750-0.1250 (   364 PWs)   bands (ev):

    -5.2712   2.3756   4.3264   4.3674

          k =-0.8750 0.1250-0.1250 (   368 PWs)   bands (ev):

    -2.8679  -1.1310   2.3548   3.0343

          k =-1.3750-0.8750-0.1250 (   378 PWs)   bands (ev):

    -2.7187  -1.2197   1.7782   2.8012

          k =-1.1250 0.3750-0.3750 (   374 PWs)   bands (ev):

    -3.2376  -0.8935   1.8183   3.7807

          k =-1.6250-0.6250-0.3750 (   375 PWs)   bands (ev):

    -3.7153  -0.9285   3.3799   4.0824

          k =-0.3750 0.3750 1.1250 (   374 PWs)   bands (ev):

    -3.2376  -0.8935   1.8183   3.7807

          k =-0.8750-0.6250 1.1250 (   364 PWs)   bands (ev):

    -5.2712   2.3756   4.3264   4.3674

     highest occupied level (ev):     5.2890

     Writing output data file silicon.10.48.save

                                                                                

     bravais-lattice index     =            2
     lattice parameter (alat)  =      10.4800  a.u.
     unit-cell volume          =     287.7556 (a.u.)^3
     number of atoms/cell      =            2
     number of atomic types    =            1
     kinetic-energy cut-off    =      18.0000  Ry
     charge density cut-off    =      72.0000  Ry
     convergence threshold     =      1.0E-12
     beta                      =       0.7000
     number of iterations used =            4
     Exchange-correlation      = SLA  PW   PBE  PBE ( 1  4  3  4 0 0)


     celldm(1)=   10.48000  celldm(2)=    0.00000  celldm(3)=    0.00000
     celldm(4)=    0.00000  celldm(5)=    0.00000  celldm(6)=    0.00000

     crystal axes: (cart. coord. in units of alat)
               a(1) = ( -0.5000  0.0000  0.5000 )  
               a(2) = (  0.0000  0.5000  0.5000 )  
               a(3) = ( -0.5000  0.5000  0.0000 )  

     reciprocal axes: (cart. coord. in units 2 pi/alat)
               b(1) = ( -1.0000 -1.0000  1.0000 )  
               b(2) = (  1.0000  1.0000  1.0000 )  
               b(3) = ( -1.0000  1.0000 -1.0000 )  


     Atoms inside the unit cell: 

     Cartesian axes

     site n.  atom      mass           positions (alat units)
        1     Si  28.0860   tau(    1) = (    0.00000    0.00000    0.00000  )
        2     Si  28.0860   tau(    2) = (    0.25000    0.25000    0.25000  )

     Computing dynamical matrix for 
                    q = (  -0.5000000  -1.0000000   0.0000000 )

      8 Sym.Ops. (no q -> -q+G )


     G cutoff =  200.3066  (    744 G-vectors)     FFT grid: ( 24, 24, 24)
     number of k points=    64

     PseudoPot. # 1 for Si read from file:
     /home/max/quantum_espresso/qe-6.1/pseudo/si_pbe_v1.uspp.F.UPF.txt
     MD5 check sum: a056efeee980c13900f22a371efd63c1
     Pseudo is Ultrasoft + core correction, Zval =  4.0
     Generated by new atomic code, or converted to UPF format
     Using radial grid of  899 points,  6 beta functions with: 
                l(1) =   0
                l(2) =   0
                l(3) =   1
                l(4) =   1
                l(5) =   2
                l(6) =   2
     Q(r) pseudized with  8 coefficients,  rinner =    0.900   0.900   0.900
                                                       0.900   0.900


     Atomic displacements:
     There are   3 irreducible representations

     Representation     1      2 modes -  To be done

     Representation     2      2 modes -  To be done

     Representation     3      2 modes -  To be done



     Alpha used in Ewald sum =   0.7000
     PHONON       :  1m34.64s CPU     1m40.35s WALL



     Representation #  1 modes #   1  2

     Self-consistent Calculation

      iter #   1 total cpu time :   100.6 secs   av.it.:   5.3
      thresh= 1.000E-02 alpha_mix =  0.700 |ddv_scf|^2 =  3.517E-06

      iter #   2 total cpu time :   101.1 secs   av.it.:  10.1
      thresh= 1.875E-04 alpha_mix =  0.700 |ddv_scf|^2 =  1.877E-06

      iter #   3 total cpu time :   101.5 secs   av.it.:   9.6
      thresh= 1.370E-04 alpha_mix =  0.700 |ddv_scf|^2 =  5.112E-09

      iter #   4 total cpu time :   102.0 secs   av.it.:   9.4
      thresh= 7.150E-06 alpha_mix =  0.700 |ddv_scf|^2 =  1.030E-11

      iter #   5 total cpu time :   102.5 secs   av.it.:   9.5
      thresh= 3.209E-07 alpha_mix =  0.700 |ddv_scf|^2 =  3.010E-13

     End of self-consistent calculation

     Convergence has been achieved 


     Representation #  2 modes #   3  4

     Self-consistent Calculation

      iter #   1 total cpu time :   102.8 secs   av.it.:   5.2
      thresh= 1.000E-02 alpha_mix =  0.700 |ddv_scf|^2 =  5.539E-06

      iter #   2 total cpu time :   103.2 secs   av.it.:  10.3
      thresh= 2.354E-04 alpha_mix =  0.700 |ddv_scf|^2 =  7.717E-06

      iter #   3 total cpu time :   103.6 secs   av.it.:   9.5
      thresh= 2.778E-04 alpha_mix =  0.700 |ddv_scf|^2 =  6.218E-09

      iter #   4 total cpu time :   104.2 secs   av.it.:   9.2
      thresh= 7.885E-06 alpha_mix =  0.700 |ddv_scf|^2 =  6.488E-11

      iter #   5 total cpu time :   104.6 secs   av.it.:   9.8
      thresh= 8.055E-07 alpha_mix =  0.700 |ddv_scf|^2 =  1.101E-12

      iter #   6 total cpu time :   105.0 secs   av.it.:   9.5
      thresh= 1.050E-07 alpha_mix =  0.700 |ddv_scf|^2 =  1.036E-14

     End of self-consistent calculation

     Convergence has been achieved 


     Representation #  3 modes #   5  6

     Self-consistent Calculation

      iter #   1 total cpu time :   105.3 secs   av.it.:   5.1
      thresh= 1.000E-02 alpha_mix =  0.700 |ddv_scf|^2 =  1.473E-06

      iter #   2 total cpu time :   105.9 secs   av.it.:   9.9
      thresh= 1.214E-04 alpha_mix =  0.700 |ddv_scf|^2 =  7.958E-07

      iter #   3 total cpu time :   106.3 secs   av.it.:   9.4
      thresh= 8.921E-05 alpha_mix =  0.700 |ddv_scf|^2 =  4.807E-09

      iter #   4 total cpu time :   106.6 secs   av.it.:   9.1
      thresh= 6.933E-06 alpha_mix =  0.700 |ddv_scf|^2 =  2.469E-11

      iter #   5 total cpu time :   107.0 secs   av.it.:   9.4
      thresh= 4.969E-07 alpha_mix =  0.700 |ddv_scf|^2 =  3.967E-13

     End of self-consistent calculation

     Convergence has been achieved 

     Number of q in the star =    6
     List of q in the star:
          1  -0.500000000  -1.000000000   0.000000000
          2   0.000000000   1.000000000   0.500000000
          3   0.000000000  -1.000000000  -0.500000000
          4   0.500000000   1.000000000   0.000000000
          5  -1.000000000  -0.500000000   0.000000000
          6   0.000000000  -0.500000000  -1.000000000

     Diagonalizing the dynamical matrix

     q = (   -0.500000000  -1.000000000   0.000000000 ) 

 **************************************************************************
     freq (    1) =       7.282866 [THz] =     242.930262 [cm-1]
     freq (    2) =       7.282866 [THz] =     242.930262 [cm-1]
     freq (    3) =      10.520857 [THz] =     350.938026 [cm-1]
     freq (    4) =      10.520857 [THz] =     350.938026 [cm-1]
     freq (    5) =      13.210721 [THz] =     440.662210 [cm-1]
     freq (    6) =      13.210721 [THz] =     440.662210 [cm-1]
 **************************************************************************

     init_run     :      0.53s CPU      0.55s WALL (       7 calls)
     electrons    :      6.03s CPU      6.40s WALL (       7 calls)

     Called by init_run:
     wfcinit      :      0.00s CPU      0.00s WALL (       7 calls)
     potinit      :      0.02s CPU      0.02s WALL (       7 calls)

     Called by electrons:
     c_bands      :      6.03s CPU      6.39s WALL (       7 calls)
     v_of_rho     :      0.02s CPU      0.02s WALL (       8 calls)
     newd         :      0.03s CPU      0.03s WALL (       8 calls)

     Called by c_bands:
     init_us_2    :      0.70s CPU      0.74s WALL (   17588 calls)
     cegterg      :      5.05s CPU      5.38s WALL (     796 calls)

     Called by sum_band:

     Called by *egterg:
     h_psi        :     59.68s CPU     63.17s WALL (  156544 calls)
     s_psi        :      6.18s CPU      6.49s WALL (  317808 calls)
     g_psi        :      0.03s CPU      0.03s WALL (    9268 calls)
     cdiaghg      :      0.46s CPU      0.50s WALL (   10064 calls)

     Called by h_psi:
     h_psi:pot    :     59.48s CPU     62.97s WALL (  156544 calls)
     h_psi:calbec :      4.95s CPU      5.30s WALL (  156544 calls)
     vloc_psi     :     51.22s CPU     54.19s WALL (  156544 calls)
     add_vuspsi   :      3.09s CPU      3.25s WALL (  156544 calls)

     General routines
     calbec       :     10.70s CPU     11.49s WALL (  354180 calls)
     fft          :      0.49s CPU      0.52s WALL (    5239 calls)
     ffts         :      0.18s CPU      0.21s WALL (    2748 calls)
     fftw         :     58.59s CPU     62.09s WALL ( 1413032 calls)
     davcio       :      0.36s CPU      0.38s WALL (   79045 calls)

     Parallel routines
     fft_scatter  :     12.12s CPU     13.26s WALL ( 1421019 calls)

     PHONON       :  1m40.93s CPU     1m47.06s WALL

     INITIALIZATION: 
     phq_setup    :      0.08s CPU      0.09s WALL (       8 calls)
     phq_init     :      2.28s CPU      2.39s WALL (       8 calls)

     phq_init     :      2.28s CPU      2.39s WALL (       8 calls)
     set_drhoc    :      0.30s CPU      0.31s WALL (      24 calls)
     init_vloc    :      0.01s CPU      0.01s WALL (       8 calls)
     init_us_1    :      0.48s CPU      0.48s WALL (       8 calls)
     newd         :      0.03s CPU      0.03s WALL (       8 calls)
     dvanqq       :      0.24s CPU      0.24s WALL (       8 calls)
     drho         :      1.13s CPU      1.18s WALL (       8 calls)

     DYNAMICAL MATRIX:
     dynmat0      :      0.50s CPU      0.50s WALL (       8 calls)
     phqscf       :     89.09s CPU     94.56s WALL (       8 calls)
     dynmatrix    :      0.01s CPU      0.02s WALL (       8 calls)

     phqscf       :     89.09s CPU     94.56s WALL (       8 calls)
     solve_linter :     88.37s CPU     93.78s WALL (      32 calls)
     drhodv       :      0.48s CPU      0.51s WALL (      32 calls)

     dynmat0      :      0.50s CPU      0.50s WALL (       8 calls)
     dynmat_us    :      0.27s CPU      0.27s WALL (       8 calls)
     d2ionq       :      0.01s CPU      0.01s WALL (       8 calls)
     dynmatcc     :      0.22s CPU      0.22s WALL (       8 calls)

     dynmat_us    :      0.27s CPU      0.27s WALL (       8 calls)
     addusdynmat  :      0.00s CPU      0.00s WALL (       8 calls)

     phqscf       :     89.09s CPU     94.56s WALL (       8 calls)
     solve_linter :     88.37s CPU     93.78s WALL (      32 calls)

     solve_linter :     88.37s CPU     93.78s WALL (      32 calls)
     dvqpsi_us    :      1.99s CPU      2.13s WALL (    2508 calls)
     ortho        :      1.13s CPU      1.20s WALL (   15550 calls)
     cgsolve      :     69.39s CPU     73.55s WALL (   15550 calls)
     incdrhoscf   :      6.52s CPU      6.95s WALL (   15550 calls)
     addusddens   :      1.18s CPU      1.21s WALL (     228 calls)
     vpsifft      :      4.71s CPU      5.00s WALL (   12922 calls)
     dv_of_drho   :      0.37s CPU      0.40s WALL (     295 calls)
     mix_pot      :      0.10s CPU      0.12s WALL (     201 calls)
     psymdvscf    :      1.41s CPU      1.45s WALL (     196 calls)
     newdq        :      1.24s CPU      1.35s WALL (     201 calls)
     adddvscf     :      0.47s CPU      0.49s WALL (   13042 calls)
     drhodvus     :      0.01s CPU      0.01s WALL (      32 calls)

     dvqpsi_us    :      1.99s CPU      2.13s WALL (    2508 calls)
     dvqpsi_us_on :      0.83s CPU      0.88s WALL (    2508 calls)

     cgsolve      :     69.39s CPU     73.55s WALL (   15550 calls)
     ch_psi       :     67.31s CPU     71.27s WALL (  145684 calls)

     ch_psi       :     67.31s CPU     71.27s WALL (  145684 calls)
     h_psi        :     59.68s CPU     63.17s WALL (  156544 calls)
     last         :      8.88s CPU      9.46s WALL (  145684 calls)

     h_psi        :     59.68s CPU     63.17s WALL (  156544 calls)
     add_vuspsi   :      3.09s CPU      3.25s WALL (  156544 calls)

     incdrhoscf   :      6.52s CPU      6.95s WALL (   15550 calls)
     addusdbec    :      0.75s CPU      0.82s WALL (   17998 calls)

     drhodvus     :      0.01s CPU      0.01s WALL (      32 calls)

      General routines
     calbec       :     10.70s CPU     11.49s WALL (  354180 calls)
     fft          :      0.49s CPU      0.52s WALL (    5239 calls)
     ffts         :      0.18s CPU      0.21s WALL (    2748 calls)
     fftw         :     58.59s CPU     62.09s WALL ( 1413032 calls)
     davcio       :      0.36s CPU      0.38s WALL (   79045 calls)
     write_rec    :      0.19s CPU      0.22s WALL (     233 calls)


     PHONON       :  1m40.93s CPU     1m47.06s WALL


   This run was terminated on:   1:46:34   9Nov2017            

=------------------------------------------------------------------------------=
   JOB DONE.
=------------------------------------------------------------------------------=
