
     Program PWSCF v.6.1 (svn rev. 13369) starts on  9Nov2017 at  1:44:46 

     This program is part of the open-source Quantum ESPRESSO suite
     for quantum simulation of materials; please cite
         "P. Giannozzi et al., J. Phys.:Condens. Matter 21 395502 (2009);
          URL http://www.quantum-espresso.org", 
     in publications or presentations arising from this work. More details at
     http://www.quantum-espresso.org/quote

     Parallel version (MPI), running on     4 processors
     R & G space division:  proc/nbgrp/npool/nimage =       4
     Waiting for input...
     Reading input from standard input
     Message from routine read_cards :
     DEPRECATED: no units specified in ATOMIC_POSITIONS card
     Message from routine read_cards :
     ATOMIC_POSITIONS: units set to alat

     Current dimensions of program PWSCF are:
     Max number of different atomic species (ntypx) = 10
     Max number of k-points (npk) =  40000
     Max angular momentum in pseudopotentials (lmaxx) =  3

     Subspace diagonalization in iterative solution of the eigenvalue problem:
     a serial algorithm will be used


     Parallelization info
     --------------------
     sticks:   dense  smooth     PW     G-vecs:    dense   smooth      PW
     Min          67      67     22                  743      743     152
     Max          68      68     23                  744      744     153
     Sum         271     271     91                 2975     2975     609



     bravais-lattice index     =            2
     lattice parameter (alat)  =      10.4800  a.u.
     unit-cell volume          =     287.7556 (a.u.)^3
     number of atoms/cell      =            2
     number of atomic types    =            1
     number of electrons       =         8.00
     number of Kohn-Sham states=            4
     kinetic-energy cutoff     =      18.0000  Ry
     charge density cutoff     =      72.0000  Ry
     convergence threshold     =      1.0E-08
     mixing beta               =       0.7000
     number of iterations used =            8  plain     mixing
     Exchange-correlation      = SLA  PW   PBE  PBE ( 1  4  3  4 0 0)

     celldm(1)=  10.480000  celldm(2)=   0.000000  celldm(3)=   0.000000
     celldm(4)=   0.000000  celldm(5)=   0.000000  celldm(6)=   0.000000

     crystal axes: (cart. coord. in units of alat)
               a(1) = (  -0.500000   0.000000   0.500000 )  
               a(2) = (   0.000000   0.500000   0.500000 )  
               a(3) = (  -0.500000   0.500000   0.000000 )  

     reciprocal axes: (cart. coord. in units 2 pi/alat)
               b(1) = ( -1.000000 -1.000000  1.000000 )  
               b(2) = (  1.000000  1.000000  1.000000 )  
               b(3) = ( -1.000000  1.000000 -1.000000 )  


     PseudoPot. # 1 for Si read from file:
     /home/max/quantum_espresso/qe-6.1/pseudo/si_pbe_v1.uspp.F.UPF.txt
     MD5 check sum: a056efeee980c13900f22a371efd63c1
     Pseudo is Ultrasoft + core correction, Zval =  4.0
     Generated by new atomic code, or converted to UPF format
     Using radial grid of  899 points,  6 beta functions with: 
                l(1) =   0
                l(2) =   0
                l(3) =   1
                l(4) =   1
                l(5) =   2
                l(6) =   2
     Q(r) pseudized with  8 coefficients,  rinner =    0.900   0.900   0.900
                                                       0.900   0.900

     atomic species   valence    mass     pseudopotential
        Si             4.00    28.08600     Si( 1.00)

     48 Sym. Ops., with inversion, found (24 have fractional translation)



   Cartesian axes

     site n.     atom                  positions (alat units)
         1           Si  tau(   1) = (   0.0000000   0.0000000   0.0000000  )
         2           Si  tau(   2) = (   0.2500000   0.2500000   0.2500000  )

     number of k points=    10
                       cart. coord. in units 2pi/alat
        k(    1) = (  -0.1250000   0.1250000   0.1250000), wk =   0.0625000
        k(    2) = (  -0.3750000   0.3750000  -0.1250000), wk =   0.1875000
        k(    3) = (   0.3750000  -0.3750000   0.6250000), wk =   0.1875000
        k(    4) = (   0.1250000  -0.1250000   0.3750000), wk =   0.1875000
        k(    5) = (  -0.1250000   0.6250000   0.1250000), wk =   0.1875000
        k(    6) = (   0.6250000  -0.1250000   0.8750000), wk =   0.3750000
        k(    7) = (   0.3750000   0.1250000   0.6250000), wk =   0.3750000
        k(    8) = (  -0.1250000  -0.8750000   0.1250000), wk =   0.1875000
        k(    9) = (  -0.3750000   0.3750000   0.3750000), wk =   0.0625000
        k(   10) = (   0.3750000  -0.3750000   1.1250000), wk =   0.1875000

     Dense  grid:     2975 G-vectors     FFT dimensions: (  24,  24,  24)

     Estimated max dynamical RAM per process >       0.70MB

     Estimated total allocated dynamical RAM >       2.81MB

     Check: negative/imaginary core charge=   -0.000006    0.000000

     Initial potential from superposition of free atoms

     starting charge    7.99866, renormalised to    8.00000
     Starting wfc are    8 randomized atomic wfcs

     total cpu time spent up to now is        0.2 secs

     per-process dynamical memory:     6.8 Mb

     Self-consistent Calculation

     iteration #  1     ecut=    18.00 Ry     beta=0.70
     Davidson diagonalization with overlap
     ethr =  1.00E-02,  avg # of iterations =  2.0

     Threshold (ethr) on eigenvalues was too large:
     Diagonalizing with lowered threshold

     Davidson diagonalization with overlap
     ethr =  6.40E-04,  avg # of iterations =  1.1

     total cpu time spent up to now is        0.4 secs

     total energy              =     -19.19348773 Ry
     Harris-Foulkes estimate   =     -19.20400989 Ry
     estimated scf accuracy    <       0.05117974 Ry

     iteration #  2     ecut=    18.00 Ry     beta=0.70
     Davidson diagonalization with overlap
     ethr =  6.40E-04,  avg # of iterations =  1.0

     total cpu time spent up to now is        0.4 secs

     total energy              =     -19.19486436 Ry
     Harris-Foulkes estimate   =     -19.19502646 Ry
     estimated scf accuracy    <       0.00253314 Ry

     iteration #  3     ecut=    18.00 Ry     beta=0.70
     Davidson diagonalization with overlap
     ethr =  3.17E-05,  avg # of iterations =  1.9

     total cpu time spent up to now is        0.4 secs

     total energy              =     -19.19509508 Ry
     Harris-Foulkes estimate   =     -19.19510778 Ry
     estimated scf accuracy    <       0.00003825 Ry

     iteration #  4     ecut=    18.00 Ry     beta=0.70
     Davidson diagonalization with overlap
     ethr =  4.78E-07,  avg # of iterations =  2.7

     total cpu time spent up to now is        0.4 secs

     total energy              =     -19.19511677 Ry
     Harris-Foulkes estimate   =     -19.19511751 Ry
     estimated scf accuracy    <       0.00000239 Ry

     iteration #  5     ecut=    18.00 Ry     beta=0.70
     Davidson diagonalization with overlap
     ethr =  2.98E-08,  avg # of iterations =  2.1

     total cpu time spent up to now is        0.5 secs

     total energy              =     -19.19511722 Ry
     Harris-Foulkes estimate   =     -19.19511725 Ry
     estimated scf accuracy    <       0.00000007 Ry

     iteration #  6     ecut=    18.00 Ry     beta=0.70
     Davidson diagonalization with overlap
     ethr =  8.74E-10,  avg # of iterations =  2.5

     total cpu time spent up to now is        0.5 secs

     End of self-consistent calculation

          k =-0.1250 0.1250 0.1250 (   362 PWs)   bands (ev):

    -5.7788   3.9733   5.2888   5.2888

          k =-0.3750 0.3750-0.1250 (   370 PWs)   bands (ev):

    -4.7944   1.0531   3.3807   4.8182

          k = 0.3750-0.3750 0.6250 (   375 PWs)   bands (ev):

    -3.7155  -0.9286   3.3798   4.0823

          k = 0.1250-0.1250 0.3750 (   364 PWs)   bands (ev):

    -5.2714   2.3754   4.3262   4.3672

          k =-0.1250 0.6250 0.1250 (   367 PWs)   bands (ev):

    -4.2810   0.6793   3.0557   3.4849

          k = 0.6250-0.1250 0.8750 (   378 PWs)   bands (ev):

    -2.7189  -1.2199   1.7781   2.8010

          k = 0.3750 0.1250 0.6250 (   372 PWs)   bands (ev):

    -3.8877  -0.1358   2.4343   3.7509

          k =-0.1250-0.8750 0.1250 (   368 PWs)   bands (ev):

    -2.8681  -1.1312   2.3547   3.0341

          k =-0.3750 0.3750 0.3750 (   362 PWs)   bands (ev):

    -4.3829  -0.1671   4.5242   4.5242

          k = 0.3750-0.3750 1.1250 (   374 PWs)   bands (ev):

    -3.2378  -0.8936   1.8181   3.7805

     highest occupied level (ev):     5.2888

!    total energy              =     -19.19511725 Ry
     Harris-Foulkes estimate   =     -19.19511725 Ry
     estimated scf accuracy    <          3.1E-09 Ry

     The total energy is the sum of the following terms:

     one-electron contribution =       4.63014002 Ry
     hartree contribution      =       1.18016329 Ry
     xc contribution           =      -8.55718222 Ry
     ewald contribution        =     -16.44823834 Ry

     convergence has been achieved in   6 iterations

     Writing output data file silicon.10.48.save

     init_run     :      0.08s CPU      0.17s WALL (       1 calls)
     electrons    :      0.21s CPU      0.27s WALL (       1 calls)

     Called by init_run:
     wfcinit      :      0.01s CPU      0.02s WALL (       1 calls)
     potinit      :      0.00s CPU      0.00s WALL (       1 calls)

     Called by electrons:
     c_bands      :      0.13s CPU      0.19s WALL (       7 calls)
     sum_band     :      0.04s CPU      0.04s WALL (       7 calls)
     v_of_rho     :      0.02s CPU      0.02s WALL (       7 calls)
     newd         :      0.03s CPU      0.04s WALL (       7 calls)
     mix_rho      :      0.00s CPU      0.00s WALL (       7 calls)

     Called by c_bands:
     init_us_2    :      0.01s CPU      0.01s WALL (     150 calls)
     cegterg      :      0.12s CPU      0.17s WALL (      70 calls)

     Called by sum_band:
     sum_band:bec :      0.00s CPU      0.00s WALL (      70 calls)
     addusdens    :      0.02s CPU      0.02s WALL (       7 calls)

     Called by *egterg:
     h_psi        :      0.09s CPU      0.13s WALL (     213 calls)
     s_psi        :      0.00s CPU      0.00s WALL (     213 calls)
     g_psi        :      0.00s CPU      0.00s WALL (     133 calls)
     cdiaghg      :      0.01s CPU      0.01s WALL (     193 calls)

     Called by h_psi:
     h_psi:pot    :      0.09s CPU      0.13s WALL (     213 calls)
     h_psi:calbec :      0.02s CPU      0.03s WALL (     213 calls)
     vloc_psi     :      0.07s CPU      0.10s WALL (     213 calls)
     add_vuspsi   :      0.00s CPU      0.00s WALL (     213 calls)

     General routines
     calbec       :      0.02s CPU      0.03s WALL (     283 calls)
     fft          :      0.01s CPU      0.01s WALL (      93 calls)
     fftw         :      0.07s CPU      0.11s WALL (    1924 calls)
     davcio       :      0.00s CPU      0.00s WALL (      10 calls)

     Parallel routines
     fft_scatter  :      0.01s CPU      0.01s WALL (    2017 calls)

     PWSCF        :     0.37s CPU         0.53s WALL


   This run was terminated on:   1:44:46   9Nov2017            

=------------------------------------------------------------------------------=
   JOB DONE.
=------------------------------------------------------------------------------=
