
     Program PWSCF v.6.1 (svn rev. 13369) starts on 10Nov2017 at 13:47:34 

     This program is part of the open-source Quantum ESPRESSO suite
     for quantum simulation of materials; please cite
         "P. Giannozzi et al., J. Phys.:Condens. Matter 21 395502 (2009);
          URL http://www.quantum-espresso.org", 
     in publications or presentations arising from this work. More details at
     http://www.quantum-espresso.org/quote

     Parallel version (MPI), running on     4 processors
     R & G space division:  proc/nbgrp/npool/nimage =       4
     Waiting for input...
     Reading input from standard input
     Message from routine read_cards :
     DEPRECATED: no units specified in ATOMIC_POSITIONS card
     Message from routine read_cards :
     ATOMIC_POSITIONS: units set to alat

     Current dimensions of program PWSCF are:
     Max number of different atomic species (ntypx) = 10
     Max number of k-points (npk) =  40000
     Max angular momentum in pseudopotentials (lmaxx) =  3

     Subspace diagonalization in iterative solution of the eigenvalue problem:
     a serial algorithm will be used


     Parallelization info
     --------------------
     sticks:   dense  smooth     PW     G-vecs:    dense   smooth      PW
     Min         205     105     31                 3896     1394     241
     Max         206     106     32                 3899     1395     242
     Sum         823     421    127                15593     5577     965



     bravais-lattice index     =            2
     lattice parameter (alat)  =      10.3330  a.u.
     unit-cell volume          =     275.8159 (a.u.)^3
     number of atoms/cell      =            2
     number of atomic types    =            1
     number of electrons       =         8.00
     number of Kohn-Sham states=            4
     kinetic-energy cutoff     =      28.0000  Ry
     charge density cutoff     =     224.0000  Ry
     convergence threshold     =      1.0E-08
     mixing beta               =       0.7000
     number of iterations used =            8  plain     mixing
     Exchange-correlation      = SLA  PW   PBE  PBE ( 1  4  3  4 0 0)

     celldm(1)=  10.333000  celldm(2)=   0.000000  celldm(3)=   0.000000
     celldm(4)=   0.000000  celldm(5)=   0.000000  celldm(6)=   0.000000

     crystal axes: (cart. coord. in units of alat)
               a(1) = (  -0.500000   0.000000   0.500000 )  
               a(2) = (   0.000000   0.500000   0.500000 )  
               a(3) = (  -0.500000   0.500000   0.000000 )  

     reciprocal axes: (cart. coord. in units 2 pi/alat)
               b(1) = ( -1.000000 -1.000000  1.000000 )  
               b(2) = (  1.000000  1.000000  1.000000 )  
               b(3) = ( -1.000000  1.000000 -1.000000 )  


     PseudoPot. # 1 for Si read from file:
     /home/s1333534/quantum_espresso/qe-6.1/pseudo/si_pbe_v1.uspp.F.UPF.txt
     MD5 check sum: a056efeee980c13900f22a371efd63c1
     Pseudo is Ultrasoft + core correction, Zval =  4.0
     Generated by new atomic code, or converted to UPF format
     Using radial grid of  899 points,  6 beta functions with: 
                l(1) =   0
                l(2) =   0
                l(3) =   1
                l(4) =   1
                l(5) =   2
                l(6) =   2
     Q(r) pseudized with  8 coefficients,  rinner =    0.900   0.900   0.900
                                                       0.900   0.900

     atomic species   valence    mass     pseudopotential
        Si             4.00    28.08600     Si( 1.00)

     48 Sym. Ops., with inversion, found (24 have fractional translation)



   Cartesian axes

     site n.     atom                  positions (alat units)
         1           Si  tau(   1) = (   0.0000000   0.0000000   0.0000000  )
         2           Si  tau(   2) = (   0.2500000   0.2500000   0.2500000  )

     number of k points=    10
                       cart. coord. in units 2pi/alat
        k(    1) = (  -0.1250000   0.1250000   0.1250000), wk =   0.0625000
        k(    2) = (  -0.3750000   0.3750000  -0.1250000), wk =   0.1875000
        k(    3) = (   0.3750000  -0.3750000   0.6250000), wk =   0.1875000
        k(    4) = (   0.1250000  -0.1250000   0.3750000), wk =   0.1875000
        k(    5) = (  -0.1250000   0.6250000   0.1250000), wk =   0.1875000
        k(    6) = (   0.6250000  -0.1250000   0.8750000), wk =   0.3750000
        k(    7) = (   0.3750000   0.1250000   0.6250000), wk =   0.3750000
        k(    8) = (  -0.1250000  -0.8750000   0.1250000), wk =   0.1875000
        k(    9) = (  -0.3750000   0.3750000   0.3750000), wk =   0.0625000
        k(   10) = (   0.3750000  -0.3750000   1.1250000), wk =   0.1875000

     Dense  grid:    15593 G-vectors     FFT dimensions: (  36,  36,  36)

     Smooth grid:     5577 G-vectors     FFT dimensions: (  25,  25,  25)

     Estimated max dynamical RAM per process >       2.65MB

     Estimated total allocated dynamical RAM >      10.59MB

     Initial potential from superposition of free atoms

     starting charge    7.99866, renormalised to    8.00000
     Starting wfc are    8 randomized atomic wfcs

     total cpu time spent up to now is        0.3 secs

     per-process dynamical memory:     9.2 Mb

     Self-consistent Calculation

     iteration #  1     ecut=    28.00 Ry     beta=0.70
     Davidson diagonalization with overlap
     ethr =  1.00E-02,  avg # of iterations =  2.0

     Threshold (ethr) on eigenvalues was too large:
     Diagonalizing with lowered threshold

     Davidson diagonalization with overlap
     ethr =  6.80E-04,  avg # of iterations =  1.0

     total cpu time spent up to now is        0.4 secs

     total energy              =     -19.19103625 Ry
     Harris-Foulkes estimate   =     -19.20351203 Ry
     estimated scf accuracy    <       0.05376487 Ry

     iteration #  2     ecut=    28.00 Ry     beta=0.70
     Davidson diagonalization with overlap
     ethr =  6.72E-04,  avg # of iterations =  1.0

     total cpu time spent up to now is        0.4 secs

     total energy              =     -19.19279869 Ry
     Harris-Foulkes estimate   =     -19.19296782 Ry
     estimated scf accuracy    <       0.00245501 Ry

     iteration #  3     ecut=    28.00 Ry     beta=0.70
     Davidson diagonalization with overlap
     ethr =  3.07E-05,  avg # of iterations =  2.1

     total cpu time spent up to now is        0.5 secs

     total energy              =     -19.19312755 Ry
     Harris-Foulkes estimate   =     -19.19313920 Ry
     estimated scf accuracy    <       0.00004088 Ry

     iteration #  4     ecut=    28.00 Ry     beta=0.70
     Davidson diagonalization with overlap
     ethr =  5.11E-07,  avg # of iterations =  3.3

     total cpu time spent up to now is        0.6 secs

     total energy              =     -19.19316464 Ry
     Harris-Foulkes estimate   =     -19.19316526 Ry
     estimated scf accuracy    <       0.00000249 Ry

     iteration #  5     ecut=    28.00 Ry     beta=0.70
     Davidson diagonalization with overlap
     ethr =  3.11E-08,  avg # of iterations =  2.0

     total cpu time spent up to now is        0.6 secs

     End of self-consistent calculation

          k =-0.1250 0.1250 0.1250 (   691 PWs)   bands (ev):

    -5.6370   4.3890   5.6982   5.6982

          k =-0.3750 0.3750-0.1250 (   686 PWs)   bands (ev):

    -4.6108   1.3971   3.7129   5.2182

          k = 0.3750-0.3750 0.6250 (   691 PWs)   bands (ev):

    -3.4717  -0.6802   3.7336   4.4471

          k = 0.1250-0.1250 0.3750 (   685 PWs)   bands (ev):

    -5.1094   2.7732   4.6907   4.7546

          k =-0.1250 0.6250 0.1250 (   684 PWs)   bands (ev):

    -4.0784   1.0630   3.3645   3.8171

          k = 0.6250-0.1250 0.8750 (   694 PWs)   bands (ev):

    -2.4393  -0.8982   2.0107   3.0869

          k = 0.3750 0.1250 0.6250 (   690 PWs)   bands (ev):

    -3.6630   0.1902   2.7229   4.0916

          k =-0.1250-0.8750 0.1250 (   692 PWs)   bands (ev):

    -2.6069  -0.8009   2.6204   3.3504

          k =-0.3750 0.3750 0.3750 (   682 PWs)   bands (ev):

    -4.1780   0.1075   4.9114   4.9114

          k = 0.3750-0.3750 1.1250 (   691 PWs)   bands (ev):

    -2.9761  -0.5957   2.0689   4.1303

     highest occupied level (ev):     5.6982

!    total energy              =     -19.19316498 Ry
     Harris-Foulkes estimate   =     -19.19316497 Ry
     estimated scf accuracy    <          8.4E-09 Ry

     The total energy is the sum of the following terms:

     one-electron contribution =       4.95190964 Ry
     hartree contribution      =       1.13432650 Ry
     xc contribution           =      -8.59716580 Ry
     ewald contribution        =     -16.68223532 Ry

     convergence has been achieved in   5 iterations


     Computing stress (Cartesian axis) and pressure

          total   stress  (Ry/bohr**3)                   (kbar)     P=   -0.13
  -0.00000089   0.00000000  -0.00000000         -0.13      0.00     -0.00
   0.00000000  -0.00000089   0.00000000          0.00     -0.13      0.00
  -0.00000000   0.00000000  -0.00000089         -0.00      0.00     -0.13


     Writing output data file silicon.28.save

     init_run     :      0.18s CPU      0.19s WALL (       1 calls)
     electrons    :      0.38s CPU      0.41s WALL (       1 calls)
     stress       :      0.15s CPU      0.15s WALL (       1 calls)

     Called by init_run:
     wfcinit      :      0.01s CPU      0.02s WALL (       1 calls)
     potinit      :      0.01s CPU      0.01s WALL (       1 calls)

     Called by electrons:
     c_bands      :      0.11s CPU      0.11s WALL (       6 calls)
     sum_band     :      0.16s CPU      0.16s WALL (       6 calls)
     v_of_rho     :      0.05s CPU      0.05s WALL (       6 calls)
     newd         :      0.08s CPU      0.09s WALL (       6 calls)
     mix_rho      :      0.00s CPU      0.00s WALL (       6 calls)

     Called by c_bands:
     init_us_2    :      0.01s CPU      0.01s WALL (     140 calls)
     cegterg      :      0.09s CPU      0.09s WALL (      60 calls)

     Called by sum_band:
     sum_band:bec :      0.00s CPU      0.00s WALL (      60 calls)
     addusdens    :      0.11s CPU      0.12s WALL (       6 calls)

     Called by *egterg:
     h_psi        :      0.08s CPU      0.08s WALL (     184 calls)
     s_psi        :      0.00s CPU      0.00s WALL (     184 calls)
     g_psi        :      0.00s CPU      0.00s WALL (     114 calls)
     cdiaghg      :      0.01s CPU      0.01s WALL (     164 calls)

     Called by h_psi:
     h_psi:pot    :      0.08s CPU      0.08s WALL (     184 calls)
     h_psi:calbec :      0.00s CPU      0.00s WALL (     184 calls)
     vloc_psi     :      0.07s CPU      0.07s WALL (     184 calls)
     add_vuspsi   :      0.00s CPU      0.00s WALL (     184 calls)

     General routines
     calbec       :      0.01s CPU      0.01s WALL (     254 calls)
     fft          :      0.02s CPU      0.02s WALL (     110 calls)
     ffts         :      0.00s CPU      0.00s WALL (      12 calls)
     fftw         :      0.08s CPU      0.07s WALL (    1650 calls)
     interpolate  :      0.00s CPU      0.00s WALL (      12 calls)
     davcio       :      0.00s CPU      0.00s WALL (      10 calls)

     Parallel routines
     fft_scatter  :      0.02s CPU      0.02s WALL (    1772 calls)

     PWSCF        :     0.80s CPU         1.02s WALL


   This run was terminated on:  13:47:35  10Nov2017            

=------------------------------------------------------------------------------=
   JOB DONE.
=------------------------------------------------------------------------------=
