
     Program PHONON v.6.1 (svn rev. 13369) starts on 10Nov2017 at 15:48:43 

     This program is part of the open-source Quantum ESPRESSO suite
     for quantum simulation of materials; please cite
         "P. Giannozzi et al., J. Phys.:Condens. Matter 21 395502 (2009);
          URL http://www.quantum-espresso.org", 
     in publications or presentations arising from this work. More details at
     http://www.quantum-espresso.org/quote

     Parallel version (MPI), running on     4 processors
     R & G space division:  proc/nbgrp/npool/nimage =       4

     Reading data from directory:
     ./silicon.10.354.save

   Info: using nr1, nr2, nr3 values from input

   Info: using nr1, nr2, nr3 values from input

     IMPORTANT: XC functional enforced from input :
     Exchange-correlation      = SLA  PW   PBE  PBE ( 1  4  3  4 0 0)
     Any further DFT definition will be discarded
     Please, verify this is what you really want


     Parallelization info
     --------------------
     sticks:   dense  smooth     PW     G-vecs:    dense   smooth      PW
     Min         222     109     37                 4363     1545     284
     Max         223     110     38                 4364     1546     285
     Sum         889     439    151                17453     6183    1139



     Dynamical matrices for ( 4, 4, 4)  uniform grid of q-points
     (   8q-points):
       N         xq(1)         xq(2)         xq(3) 
       1   0.000000000   0.000000000   0.000000000
       2  -0.250000000   0.250000000  -0.250000000
       3   0.500000000  -0.500000000   0.500000000
       4   0.000000000   0.500000000   0.000000000
       5   0.750000000  -0.250000000   0.750000000
       6   0.500000000   0.000000000   0.500000000
       7   0.000000000  -1.000000000   0.000000000
       8  -0.500000000  -1.000000000   0.000000000

     Calculation of q =    0.0000000   0.0000000   0.0000000

                                                                                

     bravais-lattice index     =            2
     lattice parameter (alat)  =      10.3540  a.u.
     unit-cell volume          =     277.5010 (a.u.)^3
     number of atoms/cell      =            2
     number of atomic types    =            1
     kinetic-energy cut-off    =      30.0000  Ry
     charge density cut-off    =     240.0000  Ry
     convergence threshold     =      1.0E-12
     beta                      =       0.7000
     number of iterations used =            4
     Exchange-correlation      = SLA  PW   PBE  PBE ( 1  4  3  4 0 0)


     celldm(1)=   10.35400  celldm(2)=    0.00000  celldm(3)=    0.00000
     celldm(4)=    0.00000  celldm(5)=    0.00000  celldm(6)=    0.00000

     crystal axes: (cart. coord. in units of alat)
               a(1) = ( -0.5000  0.0000  0.5000 )  
               a(2) = (  0.0000  0.5000  0.5000 )  
               a(3) = ( -0.5000  0.5000  0.0000 )  

     reciprocal axes: (cart. coord. in units 2 pi/alat)
               b(1) = ( -1.0000 -1.0000  1.0000 )  
               b(2) = (  1.0000  1.0000  1.0000 )  
               b(3) = ( -1.0000  1.0000 -1.0000 )  


     Atoms inside the unit cell: 

     Cartesian axes

     site n.  atom      mass           positions (alat units)
        1     Si  28.0860   tau(    1) = (    0.00000    0.00000    0.00000  )
        2     Si  28.0860   tau(    2) = (    0.25000    0.25000    0.25000  )

     Computing dynamical matrix for 
                    q = (   0.0000000   0.0000000   0.0000000 )

     49 Sym.Ops. (with q -> -q+G )


     G cutoff =  651.7302  (   4363 G-vectors)     FFT grid: ( 40, 40, 40)
     G cutoff =  325.8651  (   1546 G-vectors)  smooth grid: ( 25, 25, 25)
     number of k points=    10

     PseudoPot. # 1 for Si read from file:
     /home/s1333534/quantum_espresso/qe-6.1/pseudo/si_pbe_v1.uspp.F.UPF.txt
     MD5 check sum: a056efeee980c13900f22a371efd63c1
     Pseudo is Ultrasoft + core correction, Zval =  4.0
     Generated by new atomic code, or converted to UPF format
     Using radial grid of  899 points,  6 beta functions with: 
                l(1) =   0
                l(2) =   0
                l(3) =   1
                l(4) =   1
                l(5) =   2
                l(6) =   2
     Q(r) pseudized with  8 coefficients,  rinner =    0.900   0.900   0.900
                                                       0.900   0.900

     Mode symmetry, O_h (m-3m)  point group:


     Electric field:
     Dielectric constant
     Born effective charges in two ways 


     Atomic displacements:
     There are   2 irreducible representations

     Representation     1      3 modes -T_2g G_25' G_5+  To be done

     Representation     2      3 modes -T_1u G_15  G_4-  To be done



     Alpha used in Ewald sum =   2.5000
     PHONON       :     0.97s CPU         1.28s WALL


     Electric Fields Calculation

      iter #   1 total cpu time :     2.5 secs   av.it.:   5.8
      thresh= 1.000E-02 alpha_mix =  0.700 |ddv_scf|^2 =  9.679E-08

      iter #   2 total cpu time :     3.5 secs   av.it.:  11.9
      thresh= 3.111E-05 alpha_mix =  0.700 |ddv_scf|^2 =  5.753E-09

      iter #   3 total cpu time :     4.3 secs   av.it.:  11.8
      thresh= 7.585E-06 alpha_mix =  0.700 |ddv_scf|^2 =  3.872E-10

      iter #   4 total cpu time :     5.1 secs   av.it.:  10.6
      thresh= 1.968E-06 alpha_mix =  0.700 |ddv_scf|^2 =  2.587E-12

      iter #   5 total cpu time :     5.8 secs   av.it.:  11.2
      thresh= 1.608E-07 alpha_mix =  0.700 |ddv_scf|^2 =  2.590E-15

     End of electric fields calculation

          Dielectric constant in cartesian axis 

          (      14.008728022      -0.000000000      -0.000000000 )
          (      -0.000000000      14.008728022       0.000000000 )
          (      -0.000000000      -0.000000000      14.008728022 )

          Effective charges (d Force / dE) in cartesian axis

           atom      1   Si 
      Ex  (       -0.03813        0.00000        0.00000 )
      Ey  (        0.00000       -0.03813        0.00000 )
      Ez  (        0.00000       -0.00000       -0.03813 )
           atom      2   Si 
      Ex  (       -0.03813       -0.00000       -0.00000 )
      Ey  (       -0.00000       -0.03813        0.00000 )
      Ez  (       -0.00000        0.00000       -0.03813 )


     Representation #  1 modes #   1  2  3

     Self-consistent Calculation

      iter #   1 total cpu time :     7.4 secs   av.it.:   5.1
      thresh= 1.000E-02 alpha_mix =  0.700 |ddv_scf|^2 =  1.713E-08

      iter #   2 total cpu time :     8.7 secs   av.it.:  11.8
      thresh= 1.309E-05 alpha_mix =  0.700 |ddv_scf|^2 =  7.000E-10

      iter #   3 total cpu time :     9.5 secs   av.it.:  11.3
      thresh= 2.646E-06 alpha_mix =  0.700 |ddv_scf|^2 =  4.759E-11

      iter #   4 total cpu time :    10.2 secs   av.it.:  10.4
      thresh= 6.899E-07 alpha_mix =  0.700 |ddv_scf|^2 =  1.180E-13

     End of self-consistent calculation

     Convergence has been achieved 


     Representation #  2 modes #   4  5  6

     Self-consistent Calculation

      iter #   1 total cpu time :    11.1 secs   av.it.:   5.2
      thresh= 1.000E-02 alpha_mix =  0.700 |ddv_scf|^2 =  1.350E-08

      iter #   2 total cpu time :    12.0 secs   av.it.:  11.7
      thresh= 1.162E-05 alpha_mix =  0.700 |ddv_scf|^2 =  7.940E-10

      iter #   3 total cpu time :    12.8 secs   av.it.:  11.4
      thresh= 2.818E-06 alpha_mix =  0.700 |ddv_scf|^2 =  4.929E-11

      iter #   4 total cpu time :    13.5 secs   av.it.:  11.5
      thresh= 7.021E-07 alpha_mix =  0.700 |ddv_scf|^2 =  1.922E-13

     End of self-consistent calculation

     Convergence has been achieved 

     Number of q in the star =    1
     List of q in the star:
          1   0.000000000   0.000000000   0.000000000

          Dielectric constant in cartesian axis 

          (      14.008728022      -0.000000000      -0.000000000 )
          (      -0.000000000      14.008728022       0.000000000 )
          (      -0.000000000      -0.000000000      14.008728022 )

          Effective charges (d Force / dE) in cartesian axis

           atom      1   Si 
      Ex  (       -0.03813        0.00000        0.00000 )
      Ey  (        0.00000       -0.03813        0.00000 )
      Ez  (        0.00000       -0.00000       -0.03813 )
           atom      2   Si 
      Ex  (       -0.03813       -0.00000       -0.00000 )
      Ey  (       -0.00000       -0.03813        0.00000 )
      Ez  (       -0.00000        0.00000       -0.03813 )

          Effective charges (d P / du) in cartesian axis 

           atom      1   Si 
      Px  (       -0.07276        0.00000        0.00000 )
      Py  (        0.00000       -0.07276       -0.00000 )
      Pz  (        0.00000       -0.00000       -0.07276 )
           atom      2   Si 
      Px  (       -0.07276        0.00000        0.00000 )
      Py  (        0.00000       -0.07276       -0.00000 )
      Pz  (        0.00000       -0.00000       -0.07276 )

     Diagonalizing the dynamical matrix

     q = (    0.000000000   0.000000000   0.000000000 ) 

 **************************************************************************
     freq (    1) =      -0.476427 [THz] =     -15.891883 [cm-1]
     freq (    2) =      -0.476427 [THz] =     -15.891883 [cm-1]
     freq (    3) =      -0.476427 [THz] =     -15.891883 [cm-1]
     freq (    4) =      14.979869 [THz] =     499.674658 [cm-1]
     freq (    5) =      14.979869 [THz] =     499.674658 [cm-1]
     freq (    6) =      14.979869 [THz] =     499.674658 [cm-1]
 **************************************************************************

     Mode symmetry, O_h (m-3m)  point group:

     freq (  1 -  3) =        -15.9  [cm-1]   --> T_1u G_15  G_4- I  
     freq (  4 -  6) =        499.7  [cm-1]   --> T_2g G_25' G_5+ R  

     Calculation of q =   -0.2500000   0.2500000  -0.2500000

   Info: using nr1, nr2, nr3 values from input

   Info: using nr1, nr2, nr3 values from input

     Parallelization info
     --------------------
     sticks:   dense  smooth     PW     G-vecs:    dense   smooth      PW
     Min         222     109     37                 4363     1545     309
     Max         223     110     38                 4364     1546     312
     Sum         889     439    151                17453     6183    1243



     bravais-lattice index     =            2
     lattice parameter (alat)  =      10.3540  a.u.
     unit-cell volume          =     277.5010 (a.u.)^3
     number of atoms/cell      =            2
     number of atomic types    =            1
     number of electrons       =         8.00
     number of Kohn-Sham states=            4
     kinetic-energy cutoff     =      30.0000  Ry
     charge density cutoff     =     240.0000  Ry
     Exchange-correlation      = SLA  PW   PBE  PBE ( 1  4  3  4 0 0)

     celldm(1)=  10.354000  celldm(2)=   0.000000  celldm(3)=   0.000000
     celldm(4)=   0.000000  celldm(5)=   0.000000  celldm(6)=   0.000000

     crystal axes: (cart. coord. in units of alat)
               a(1) = (  -0.500000   0.000000   0.500000 )  
               a(2) = (   0.000000   0.500000   0.500000 )  
               a(3) = (  -0.500000   0.500000   0.000000 )  

     reciprocal axes: (cart. coord. in units 2 pi/alat)
               b(1) = ( -1.000000 -1.000000  1.000000 )  
               b(2) = (  1.000000  1.000000  1.000000 )  
               b(3) = ( -1.000000  1.000000 -1.000000 )  


     PseudoPot. # 1 for Si read from file:
     /home/s1333534/quantum_espresso/qe-6.1/pseudo/si_pbe_v1.uspp.F.UPF.txt
     MD5 check sum: a056efeee980c13900f22a371efd63c1
     Pseudo is Ultrasoft + core correction, Zval =  4.0
     Generated by new atomic code, or converted to UPF format
     Using radial grid of  899 points,  6 beta functions with: 
                l(1) =   0
                l(2) =   0
                l(3) =   1
                l(4) =   1
                l(5) =   2
                l(6) =   2
     Q(r) pseudized with  8 coefficients,  rinner =    0.900   0.900   0.900
                                                       0.900   0.900

     atomic species   valence    mass     pseudopotential
        Si             4.00    28.08600     Si( 1.00)

     48 Sym. Ops., with inversion, found



   Cartesian axes

     site n.     atom                  positions (alat units)
         1           Si  tau(   1) = (   0.0000000   0.0000000   0.0000000  )
         2           Si  tau(   2) = (   0.2500000   0.2500000   0.2500000  )

     number of k points=   120

     Number of k-points >= 100: set verbosity='high' to print them.

     Dense  grid:    17453 G-vectors     FFT dimensions: (  40,  40,  40)

     Smooth grid:     6183 G-vectors     FFT dimensions: (  25,  25,  25)

     Estimated max dynamical RAM per process >       1.79MB

     Estimated total allocated dynamical RAM >       7.17MB

     The potential is recalculated from file :
     ./_ph0/silicon.10.354.save/charge-density.dat

     Starting wfc are    8 atomic wfcs

     Band Structure Calculation
     Davidson diagonalization with overlap

     ethr =  1.25E-10,  avg # of iterations = 12.2

     total cpu time spent up to now is        1.4 secs

     End of band structure calculation

     Number of k-points >= 100: set verbosity='high' to print the bands.

     highest occupied level (ev):     5.6374

     Writing output data file silicon.10.354.save

                                                                                

     bravais-lattice index     =            2
     lattice parameter (alat)  =      10.3540  a.u.
     unit-cell volume          =     277.5010 (a.u.)^3
     number of atoms/cell      =            2
     number of atomic types    =            1
     kinetic-energy cut-off    =      30.0000  Ry
     charge density cut-off    =     240.0000  Ry
     convergence threshold     =      1.0E-12
     beta                      =       0.7000
     number of iterations used =            4
     Exchange-correlation      = SLA  PW   PBE  PBE ( 1  4  3  4 0 0)


     celldm(1)=   10.35400  celldm(2)=    0.00000  celldm(3)=    0.00000
     celldm(4)=    0.00000  celldm(5)=    0.00000  celldm(6)=    0.00000

     crystal axes: (cart. coord. in units of alat)
               a(1) = ( -0.5000  0.0000  0.5000 )  
               a(2) = (  0.0000  0.5000  0.5000 )  
               a(3) = ( -0.5000  0.5000  0.0000 )  

     reciprocal axes: (cart. coord. in units 2 pi/alat)
               b(1) = ( -1.0000 -1.0000  1.0000 )  
               b(2) = (  1.0000  1.0000  1.0000 )  
               b(3) = ( -1.0000  1.0000 -1.0000 )  


     Atoms inside the unit cell: 

     Cartesian axes

     site n.  atom      mass           positions (alat units)
        1     Si  28.0860   tau(    1) = (    0.00000    0.00000    0.00000  )
        2     Si  28.0860   tau(    2) = (    0.25000    0.25000    0.25000  )

     Computing dynamical matrix for 
                    q = (  -0.2500000   0.2500000  -0.2500000 )

      6 Sym.Ops. (no q -> -q+G )


     G cutoff =  651.7302  (   4363 G-vectors)     FFT grid: ( 40, 40, 40)
     G cutoff =  325.8651  (   1546 G-vectors)  smooth grid: ( 25, 25, 25)
     number of k points=   120

     PseudoPot. # 1 for Si read from file:
     /home/s1333534/quantum_espresso/qe-6.1/pseudo/si_pbe_v1.uspp.F.UPF.txt
     MD5 check sum: a056efeee980c13900f22a371efd63c1
     Pseudo is Ultrasoft + core correction, Zval =  4.0
     Generated by new atomic code, or converted to UPF format
     Using radial grid of  899 points,  6 beta functions with: 
                l(1) =   0
                l(2) =   0
                l(3) =   1
                l(4) =   1
                l(5) =   2
                l(6) =   2
     Q(r) pseudized with  8 coefficients,  rinner =    0.900   0.900   0.900
                                                       0.900   0.900

     Mode symmetry, C_3v (3m)   point group:


     Atomic displacements:
     There are   4 irreducible representations

     Representation     1      1 modes -A_1  L_1  To be done

     Representation     2      1 modes -A_1  L_1  To be done

     Representation     3      2 modes -E    L_3  To be done

     Representation     4      2 modes -E    L_3  To be done



     Alpha used in Ewald sum =   2.5000
     PHONON       :    12.19s CPU        16.90s WALL



     Representation #  1 mode #   1

     Self-consistent Calculation

      iter #   1 total cpu time :    17.4 secs   av.it.:   5.9
      thresh= 1.000E-02 alpha_mix =  0.700 |ddv_scf|^2 =  3.089E-04

      iter #   2 total cpu time :    18.0 secs   av.it.:   9.2
      thresh= 1.758E-03 alpha_mix =  0.700 |ddv_scf|^2 =  4.719E-03

      iter #   3 total cpu time :    18.6 secs   av.it.:   7.1
      thresh= 6.869E-03 alpha_mix =  0.700 |ddv_scf|^2 =  1.954E-07

      iter #   4 total cpu time :    19.2 secs   av.it.:   9.7
      thresh= 4.420E-05 alpha_mix =  0.700 |ddv_scf|^2 =  1.303E-08

      iter #   5 total cpu time :    19.9 secs   av.it.:   9.8
      thresh= 1.141E-05 alpha_mix =  0.700 |ddv_scf|^2 =  2.424E-10

      iter #   6 total cpu time :    20.6 secs   av.it.:   9.9
      thresh= 1.557E-06 alpha_mix =  0.700 |ddv_scf|^2 =  6.361E-10

      iter #   7 total cpu time :    21.1 secs   av.it.:   7.8
      thresh= 2.522E-06 alpha_mix =  0.700 |ddv_scf|^2 =  3.734E-11

      iter #   8 total cpu time :    21.7 secs   av.it.:   9.4
      thresh= 6.111E-07 alpha_mix =  0.700 |ddv_scf|^2 =  4.129E-13

     End of self-consistent calculation

     Convergence has been achieved 


     Representation #  2 mode #   2

     Self-consistent Calculation

      iter #   1 total cpu time :    22.4 secs   av.it.:   5.9
      thresh= 1.000E-02 alpha_mix =  0.700 |ddv_scf|^2 =  3.089E-04

      iter #   2 total cpu time :    23.0 secs   av.it.:   9.2
      thresh= 1.758E-03 alpha_mix =  0.700 |ddv_scf|^2 =  4.719E-03

      iter #   3 total cpu time :    23.5 secs   av.it.:   7.1
      thresh= 6.869E-03 alpha_mix =  0.700 |ddv_scf|^2 =  1.954E-07

      iter #   4 total cpu time :    24.1 secs   av.it.:   9.7
      thresh= 4.420E-05 alpha_mix =  0.700 |ddv_scf|^2 =  1.303E-08

      iter #   5 total cpu time :    24.8 secs   av.it.:   9.8
      thresh= 1.141E-05 alpha_mix =  0.700 |ddv_scf|^2 =  2.424E-10

      iter #   6 total cpu time :    25.4 secs   av.it.:   9.9
      thresh= 1.557E-06 alpha_mix =  0.700 |ddv_scf|^2 =  6.361E-10

      iter #   7 total cpu time :    26.0 secs   av.it.:   7.8
      thresh= 2.522E-06 alpha_mix =  0.700 |ddv_scf|^2 =  3.734E-11

      iter #   8 total cpu time :    26.6 secs   av.it.:   9.4
      thresh= 6.111E-07 alpha_mix =  0.700 |ddv_scf|^2 =  4.129E-13

     End of self-consistent calculation

     Convergence has been achieved 


     Representation #  3 modes #   3  4

     Self-consistent Calculation

      iter #   1 total cpu time :    27.5 secs   av.it.:   5.2
      thresh= 1.000E-02 alpha_mix =  0.700 |ddv_scf|^2 =  4.814E-08

      iter #   2 total cpu time :    28.9 secs   av.it.:  11.7
      thresh= 2.194E-05 alpha_mix =  0.700 |ddv_scf|^2 =  3.093E-09

      iter #   3 total cpu time :    30.2 secs   av.it.:  11.2
      thresh= 5.562E-06 alpha_mix =  0.700 |ddv_scf|^2 =  1.634E-10

      iter #   4 total cpu time :    31.4 secs   av.it.:  11.1
      thresh= 1.278E-06 alpha_mix =  0.700 |ddv_scf|^2 =  6.291E-13

     End of self-consistent calculation

     Convergence has been achieved 


     Representation #  4 modes #   5  6

     Self-consistent Calculation

      iter #   1 total cpu time :    32.4 secs   av.it.:   5.2
      thresh= 1.000E-02 alpha_mix =  0.700 |ddv_scf|^2 =  4.815E-08

      iter #   2 total cpu time :    33.8 secs   av.it.:  11.7
      thresh= 2.194E-05 alpha_mix =  0.700 |ddv_scf|^2 =  3.093E-09

      iter #   3 total cpu time :    35.1 secs   av.it.:  11.4
      thresh= 5.562E-06 alpha_mix =  0.700 |ddv_scf|^2 =  1.633E-10

      iter #   4 total cpu time :    36.3 secs   av.it.:  11.2
      thresh= 1.278E-06 alpha_mix =  0.700 |ddv_scf|^2 =  6.323E-13

     End of self-consistent calculation

     Convergence has been achieved 

     Number of q in the star =    8
     List of q in the star:
          1  -0.250000000   0.250000000  -0.250000000
          2   0.250000000  -0.250000000  -0.250000000
          3   0.250000000  -0.250000000   0.250000000
          4   0.250000000   0.250000000   0.250000000
          5  -0.250000000  -0.250000000  -0.250000000
          6  -0.250000000  -0.250000000   0.250000000
          7  -0.250000000   0.250000000   0.250000000
          8   0.250000000   0.250000000  -0.250000000

     Diagonalizing the dynamical matrix

     q = (   -0.250000000   0.250000000  -0.250000000 ) 

 **************************************************************************
     freq (    1) =       2.796642 [THz] =      93.285919 [cm-1]
     freq (    2) =       2.796642 [THz] =      93.285919 [cm-1]
     freq (    3) =       6.688845 [THz] =     223.115853 [cm-1]
     freq (    4) =      14.134032 [THz] =     471.460568 [cm-1]
     freq (    5) =      14.395631 [THz] =     480.186562 [cm-1]
     freq (    6) =      14.395631 [THz] =     480.186562 [cm-1]
 **************************************************************************

     Mode symmetry, C_3v (3m)   point group:

     freq (  1 -  2) =         93.3  [cm-1]   --> E    L_3           
     freq (  3 -  3) =        223.1  [cm-1]   --> A_1  L_1           
     freq (  4 -  4) =        471.5  [cm-1]   --> A_1  L_1           
     freq (  5 -  6) =        480.2  [cm-1]   --> E    L_3           

     Calculation of q =    0.5000000  -0.5000000   0.5000000

   Info: using nr1, nr2, nr3 values from input

   Info: using nr1, nr2, nr3 values from input

     Parallelization info
     --------------------
     sticks:   dense  smooth     PW     G-vecs:    dense   smooth      PW
     Min         222     109     40                 4363     1545     351
     Max         223     110     41                 4364     1546     354
     Sum         889     439    163                17453     6183    1411



     bravais-lattice index     =            2
     lattice parameter (alat)  =      10.3540  a.u.
     unit-cell volume          =     277.5010 (a.u.)^3
     number of atoms/cell      =            2
     number of atomic types    =            1
     number of electrons       =         8.00
     number of Kohn-Sham states=            4
     kinetic-energy cutoff     =      30.0000  Ry
     charge density cutoff     =     240.0000  Ry
     Exchange-correlation      = SLA  PW   PBE  PBE ( 1  4  3  4 0 0)

     celldm(1)=  10.354000  celldm(2)=   0.000000  celldm(3)=   0.000000
     celldm(4)=   0.000000  celldm(5)=   0.000000  celldm(6)=   0.000000

     crystal axes: (cart. coord. in units of alat)
               a(1) = (  -0.500000   0.000000   0.500000 )  
               a(2) = (   0.000000   0.500000   0.500000 )  
               a(3) = (  -0.500000   0.500000   0.000000 )  

     reciprocal axes: (cart. coord. in units 2 pi/alat)
               b(1) = ( -1.000000 -1.000000  1.000000 )  
               b(2) = (  1.000000  1.000000  1.000000 )  
               b(3) = ( -1.000000  1.000000 -1.000000 )  


     PseudoPot. # 1 for Si read from file:
     /home/s1333534/quantum_espresso/qe-6.1/pseudo/si_pbe_v1.uspp.F.UPF.txt
     MD5 check sum: a056efeee980c13900f22a371efd63c1
     Pseudo is Ultrasoft + core correction, Zval =  4.0
     Generated by new atomic code, or converted to UPF format
     Using radial grid of  899 points,  6 beta functions with: 
                l(1) =   0
                l(2) =   0
                l(3) =   1
                l(4) =   1
                l(5) =   2
                l(6) =   2
     Q(r) pseudized with  8 coefficients,  rinner =    0.900   0.900   0.900
                                                       0.900   0.900

     atomic species   valence    mass     pseudopotential
        Si             4.00    28.08600     Si( 1.00)

     48 Sym. Ops., with inversion, found



   Cartesian axes

     site n.     atom                  positions (alat units)
         1           Si  tau(   1) = (   0.0000000   0.0000000   0.0000000  )
         2           Si  tau(   2) = (   0.2500000   0.2500000   0.2500000  )

     number of k points=    60
                       cart. coord. in units 2pi/alat
        k(    1) = (  -0.1250000   0.1250000   0.1250000), wk =   0.0468750
        k(    2) = (   0.3750000  -0.3750000   0.6250000), wk =   0.0000000
        k(    3) = (  -0.3750000   0.3750000  -0.1250000), wk =   0.0468750
        k(    4) = (   0.1250000  -0.1250000   0.3750000), wk =   0.0000000
        k(    5) = (   0.3750000  -0.3750000   0.6250000), wk =   0.0468750
        k(    6) = (   0.8750000  -0.8750000   1.1250000), wk =   0.0000000
        k(    7) = (   0.1250000  -0.1250000   0.3750000), wk =   0.0468750
        k(    8) = (   0.6250000  -0.6250000   0.8750000), wk =   0.0000000
        k(    9) = (  -0.1250000   0.6250000   0.1250000), wk =   0.0937500
        k(   10) = (   0.3750000   0.1250000   0.6250000), wk =   0.0000000
        k(   11) = (   0.6250000  -0.1250000   0.8750000), wk =   0.0937500
        k(   12) = (   1.1250000  -0.6250000   1.3750000), wk =   0.0000000
        k(   13) = (   0.3750000   0.1250000   0.6250000), wk =   0.0937500
        k(   14) = (   0.8750000  -0.3750000   1.1250000), wk =   0.0000000
        k(   15) = (  -0.1250000  -0.8750000   0.1250000), wk =   0.0937500
        k(   16) = (   0.3750000  -1.3750000   0.6250000), wk =   0.0000000
        k(   17) = (  -0.3750000   0.3750000   0.3750000), wk =   0.0468750
        k(   18) = (   0.1250000  -0.1250000   0.8750000), wk =   0.0000000
        k(   19) = (   0.3750000  -0.3750000   1.1250000), wk =   0.0468750
        k(   20) = (   0.8750000  -0.8750000   1.6250000), wk =   0.0000000
        k(   21) = (   0.1250000  -0.1250000   0.1250000), wk =   0.0156250
        k(   22) = (   0.6250000  -0.6250000   0.6250000), wk =   0.0000000
        k(   23) = (  -0.3750000  -0.3750000  -0.1250000), wk =   0.0937500
        k(   24) = (   0.1250000  -0.8750000   0.3750000), wk =   0.0000000
        k(   25) = (  -0.1250000  -0.3750000   0.3750000), wk =   0.0468750
        k(   26) = (   0.3750000  -0.8750000   0.8750000), wk =   0.0000000
        k(   27) = (   0.3750000   0.3750000   0.6250000), wk =   0.0937500
        k(   28) = (   0.8750000  -0.1250000   1.1250000), wk =   0.0000000
        k(   29) = (   0.6250000   0.3750000  -0.3750000), wk =   0.0468750
        k(   30) = (   1.1250000  -0.1250000   0.1250000), wk =   0.0000000
        k(   31) = (   0.1250000   0.1250000   0.3750000), wk =   0.0937500
        k(   32) = (   0.6250000  -0.3750000   0.8750000), wk =   0.0000000
        k(   33) = (   0.3750000   0.1250000  -0.1250000), wk =   0.0468750
        k(   34) = (   0.8750000  -0.3750000   0.3750000), wk =   0.0000000
        k(   35) = (  -0.1250000  -0.6250000  -0.1250000), wk =   0.0468750
        k(   36) = (   0.3750000  -1.1250000   0.3750000), wk =   0.0000000
        k(   37) = (   0.1250000  -0.6250000   0.1250000), wk =   0.0468750
        k(   38) = (   0.6250000  -1.1250000   0.6250000), wk =   0.0000000
        k(   39) = (   0.6250000   0.1250000   0.8750000), wk =   0.0937500
        k(   40) = (   1.1250000  -0.3750000   1.3750000), wk =   0.0000000
        k(   41) = (  -0.8750000   0.1250000   0.6250000), wk =   0.0937500
        k(   42) = (  -0.3750000  -0.3750000   1.1250000), wk =   0.0000000
        k(   43) = (   0.8750000   0.1250000  -0.6250000), wk =   0.0937500
        k(   44) = (   1.3750000  -0.3750000  -0.1250000), wk =   0.0000000
        k(   45) = (   0.3750000  -0.1250000   0.6250000), wk =   0.0937500
        k(   46) = (   0.8750000  -0.6250000   1.1250000), wk =   0.0000000
        k(   47) = (  -0.6250000  -0.1250000   0.3750000), wk =   0.0937500
        k(   48) = (  -0.1250000  -0.6250000   0.8750000), wk =   0.0000000
        k(   49) = (   0.6250000  -0.1250000  -0.3750000), wk =   0.0937500
        k(   50) = (   1.1250000  -0.6250000   0.1250000), wk =   0.0000000
        k(   51) = (  -0.1250000   0.8750000  -0.1250000), wk =   0.0468750
        k(   52) = (   0.3750000   0.3750000   0.3750000), wk =   0.0000000
        k(   53) = (   0.1250000   0.8750000   0.1250000), wk =   0.0468750
        k(   54) = (   0.6250000   0.3750000   0.6250000), wk =   0.0000000
        k(   55) = (   0.3750000  -0.3750000   0.3750000), wk =   0.0156250
        k(   56) = (   0.8750000  -0.8750000   0.8750000), wk =   0.0000000
        k(   57) = (   0.3750000   0.3750000   1.1250000), wk =   0.0937500
        k(   58) = (   0.8750000  -0.1250000   1.6250000), wk =   0.0000000
        k(   59) = (   1.1250000   0.3750000  -0.3750000), wk =   0.0468750
        k(   60) = (   1.6250000  -0.1250000   0.1250000), wk =   0.0000000

     Dense  grid:    17453 G-vectors     FFT dimensions: (  40,  40,  40)

     Smooth grid:     6183 G-vectors     FFT dimensions: (  25,  25,  25)

     Estimated max dynamical RAM per process >       1.79MB

     Estimated total allocated dynamical RAM >       7.17MB

     The potential is recalculated from file :
     ./_ph0/silicon.10.354.save/charge-density.dat

     Starting wfc are    8 atomic wfcs

     Band Structure Calculation
     Davidson diagonalization with overlap

     ethr =  1.25E-10,  avg # of iterations = 12.2

     total cpu time spent up to now is        2.5 secs

     End of band structure calculation

          k =-0.1250 0.1250 0.1250 (   773 PWs)   bands (ev):

    -5.6595   4.3279   5.6374   5.6374

          k = 0.3750-0.3750 0.6250 (   773 PWs)   bands (ev):

    -3.5081  -0.7181   3.6803   4.3927

          k =-0.3750 0.3750-0.1250 (   776 PWs)   bands (ev):

    -4.6390   1.3461   3.6624   5.1589

          k = 0.1250-0.1250 0.3750 (   781 PWs)   bands (ev):

    -5.1347   2.7148   4.6362   4.6966

          k = 0.3750-0.3750 0.6250 (   773 PWs)   bands (ev):

    -3.5081  -0.7181   3.6803   4.3927

          k = 0.8750-0.8750 1.1250 (   773 PWs)   bands (ev):

    -5.6595   4.3279   5.6374   5.6374

          k = 0.1250-0.1250 0.3750 (   781 PWs)   bands (ev):

    -5.1347   2.7148   4.6362   4.6966

          k = 0.6250-0.6250 0.8750 (   776 PWs)   bands (ev):

    -4.6390   1.3461   3.6624   5.1589

          k =-0.1250 0.6250 0.1250 (   775 PWs)   bands (ev):

    -4.1093   1.0066   3.3174   3.7672

          k = 0.3750 0.1250 0.6250 (   770 PWs)   bands (ev):

    -3.6970   0.1419   2.6783   4.0404

          k = 0.6250-0.1250 0.8750 (   762 PWs)   bands (ev):

    -2.4809  -0.9457   1.9738   3.0431

          k = 1.1250-0.6250 1.3750 (   776 PWs)   bands (ev):

    -4.6390   1.3461   3.6624   5.1589

          k = 0.3750 0.1250 0.6250 (   770 PWs)   bands (ev):

    -3.6970   0.1419   2.6783   4.0404

          k = 0.8750-0.3750 1.1250 (   775 PWs)   bands (ev):

    -4.1093   1.0066   3.3174   3.7672

          k =-0.1250-0.8750 0.1250 (   763 PWs)   bands (ev):

    -2.6461  -0.8497   2.5793   3.3028

          k = 0.3750-1.3750 0.6250 (   773 PWs)   bands (ev):

    -3.5081  -0.7181   3.6803   4.3927

          k =-0.3750 0.3750 0.3750 (   769 PWs)   bands (ev):

    -4.2093   0.0658   4.8539   4.8539

          k = 0.1250-0.1250 0.8750 (   763 PWs)   bands (ev):

    -2.6461  -0.8497   2.5793   3.3028

          k = 0.3750-0.3750 1.1250 (   769 PWs)   bands (ev):

    -3.0152  -0.6400   2.0294   4.0780

          k = 0.8750-0.8750 1.6250 (   775 PWs)   bands (ev):

    -4.1093   1.0066   3.3174   3.7672

          k = 0.1250-0.1250 0.1250 (   773 PWs)   bands (ev):

    -5.6595   4.3279   5.6374   5.6374

          k = 0.6250-0.6250 0.6250 (   769 PWs)   bands (ev):

    -4.2093   0.0658   4.8539   4.8539

          k =-0.3750-0.3750-0.1250 (   776 PWs)   bands (ev):

    -4.6390   1.3461   3.6624   5.1589

          k = 0.1250-0.8750 0.3750 (   762 PWs)   bands (ev):

    -2.4809  -0.9457   1.9738   3.0431

          k =-0.1250-0.3750 0.3750 (   776 PWs)   bands (ev):

    -4.6390   1.3461   3.6624   5.1589

          k = 0.3750-0.8750 0.8750 (   775 PWs)   bands (ev):

    -4.1093   1.0066   3.3174   3.7672

          k = 0.3750 0.3750 0.6250 (   773 PWs)   bands (ev):

    -3.5081  -0.7181   3.6803   4.3927

          k = 0.8750-0.1250 1.1250 (   763 PWs)   bands (ev):

    -2.6461  -0.8497   2.5793   3.3028

          k = 0.6250 0.3750-0.3750 (   773 PWs)   bands (ev):

    -3.5081  -0.7181   3.6803   4.3927

          k = 1.1250-0.1250 0.1250 (   763 PWs)   bands (ev):

    -2.6461  -0.8497   2.5793   3.3028

          k = 0.1250 0.1250 0.3750 (   781 PWs)   bands (ev):

    -5.1347   2.7148   4.6362   4.6966

          k = 0.6250-0.3750 0.8750 (   770 PWs)   bands (ev):

    -3.6970   0.1419   2.6783   4.0404

          k = 0.3750 0.1250-0.1250 (   781 PWs)   bands (ev):

    -5.1347   2.7148   4.6362   4.6966

          k = 0.8750-0.3750 0.3750 (   769 PWs)   bands (ev):

    -3.0152  -0.6400   2.0294   4.0780

          k =-0.1250-0.6250-0.1250 (   775 PWs)   bands (ev):

    -4.1093   1.0066   3.3174   3.7672

          k = 0.3750-1.1250 0.3750 (   769 PWs)   bands (ev):

    -3.0152  -0.6400   2.0294   4.0780

          k = 0.1250-0.6250 0.1250 (   775 PWs)   bands (ev):

    -4.1093   1.0066   3.3174   3.7672

          k = 0.6250-1.1250 0.6250 (   776 PWs)   bands (ev):

    -4.6390   1.3461   3.6624   5.1589

          k = 0.6250 0.1250 0.8750 (   762 PWs)   bands (ev):

    -2.4809  -0.9457   1.9738   3.0431

          k = 1.1250-0.3750 1.3750 (   770 PWs)   bands (ev):

    -3.6970   0.1419   2.6783   4.0404

          k =-0.8750 0.1250 0.6250 (   762 PWs)   bands (ev):

    -2.4809  -0.9457   1.9738   3.0431

          k =-0.3750-0.3750 1.1250 (   769 PWs)   bands (ev):

    -3.0152  -0.6400   2.0294   4.0780

          k = 0.8750 0.1250-0.6250 (   762 PWs)   bands (ev):

    -2.4809  -0.9457   1.9738   3.0431

          k = 1.3750-0.3750-0.1250 (   770 PWs)   bands (ev):

    -3.6970   0.1419   2.6783   4.0404

          k = 0.3750-0.1250 0.6250 (   770 PWs)   bands (ev):

    -3.6970   0.1419   2.6783   4.0404

          k = 0.8750-0.6250 1.1250 (   781 PWs)   bands (ev):

    -5.1347   2.7148   4.6362   4.6966

          k =-0.6250-0.1250 0.3750 (   770 PWs)   bands (ev):

    -3.6970   0.1419   2.6783   4.0404

          k =-0.1250-0.6250 0.8750 (   762 PWs)   bands (ev):

    -2.4809  -0.9457   1.9738   3.0431

          k = 0.6250-0.1250-0.3750 (   770 PWs)   bands (ev):

    -3.6970   0.1419   2.6783   4.0404

          k = 1.1250-0.6250 0.1250 (   762 PWs)   bands (ev):

    -2.4809  -0.9457   1.9738   3.0431

          k =-0.1250 0.8750-0.1250 (   763 PWs)   bands (ev):

    -2.6461  -0.8497   2.5793   3.3028

          k = 0.3750 0.3750 0.3750 (   769 PWs)   bands (ev):

    -4.2093   0.0658   4.8539   4.8539

          k = 0.1250 0.8750 0.1250 (   763 PWs)   bands (ev):

    -2.6461  -0.8497   2.5793   3.3028

          k = 0.6250 0.3750 0.6250 (   773 PWs)   bands (ev):

    -3.5081  -0.7181   3.6803   4.3927

          k = 0.3750-0.3750 0.3750 (   769 PWs)   bands (ev):

    -4.2093   0.0658   4.8539   4.8539

          k = 0.8750-0.8750 0.8750 (   773 PWs)   bands (ev):

    -5.6595   4.3279   5.6374   5.6374

          k = 0.3750 0.3750 1.1250 (   769 PWs)   bands (ev):

    -3.0152  -0.6400   2.0294   4.0780

          k = 0.8750-0.1250 1.6250 (   762 PWs)   bands (ev):

    -2.4809  -0.9457   1.9738   3.0431

          k = 1.1250 0.3750-0.3750 (   769 PWs)   bands (ev):

    -3.0152  -0.6400   2.0294   4.0780

          k = 1.6250-0.1250 0.1250 (   781 PWs)   bands (ev):

    -5.1347   2.7148   4.6362   4.6966

     highest occupied level (ev):     5.6374

     Writing output data file silicon.10.354.save

                                                                                

     bravais-lattice index     =            2
     lattice parameter (alat)  =      10.3540  a.u.
     unit-cell volume          =     277.5010 (a.u.)^3
     number of atoms/cell      =            2
     number of atomic types    =            1
     kinetic-energy cut-off    =      30.0000  Ry
     charge density cut-off    =     240.0000  Ry
     convergence threshold     =      1.0E-12
     beta                      =       0.7000
     number of iterations used =            4
     Exchange-correlation      = SLA  PW   PBE  PBE ( 1  4  3  4 0 0)


     celldm(1)=   10.35400  celldm(2)=    0.00000  celldm(3)=    0.00000
     celldm(4)=    0.00000  celldm(5)=    0.00000  celldm(6)=    0.00000

     crystal axes: (cart. coord. in units of alat)
               a(1) = ( -0.5000  0.0000  0.5000 )  
               a(2) = (  0.0000  0.5000  0.5000 )  
               a(3) = ( -0.5000  0.5000  0.0000 )  

     reciprocal axes: (cart. coord. in units 2 pi/alat)
               b(1) = ( -1.0000 -1.0000  1.0000 )  
               b(2) = (  1.0000  1.0000  1.0000 )  
               b(3) = ( -1.0000  1.0000 -1.0000 )  


     Atoms inside the unit cell: 

     Cartesian axes

     site n.  atom      mass           positions (alat units)
        1     Si  28.0860   tau(    1) = (    0.00000    0.00000    0.00000  )
        2     Si  28.0860   tau(    2) = (    0.25000    0.25000    0.25000  )

     Computing dynamical matrix for 
                    q = (   0.5000000  -0.5000000   0.5000000 )

     13 Sym.Ops. (with q -> -q+G )


     G cutoff =  651.7302  (   4363 G-vectors)     FFT grid: ( 40, 40, 40)
     G cutoff =  325.8651  (   1546 G-vectors)  smooth grid: ( 25, 25, 25)
     number of k points=    60

     PseudoPot. # 1 for Si read from file:
     /home/s1333534/quantum_espresso/qe-6.1/pseudo/si_pbe_v1.uspp.F.UPF.txt
     MD5 check sum: a056efeee980c13900f22a371efd63c1
     Pseudo is Ultrasoft + core correction, Zval =  4.0
     Generated by new atomic code, or converted to UPF format
     Using radial grid of  899 points,  6 beta functions with: 
                l(1) =   0
                l(2) =   0
                l(3) =   1
                l(4) =   1
                l(5) =   2
                l(6) =   2
     Q(r) pseudized with  8 coefficients,  rinner =    0.900   0.900   0.900
                                                       0.900   0.900


     Atomic displacements:
     There are   4 irreducible representations

     Representation     1      1 modes -  To be done

     Representation     2      1 modes -  To be done

     Representation     3      2 modes -  To be done

     Representation     4      2 modes -  To be done



     Alpha used in Ewald sum =   2.5000
     PHONON       :    29.95s CPU        39.06s WALL



     Representation #  1 mode #   1

     Self-consistent Calculation

      iter #   1 total cpu time :    39.4 secs   av.it.:   5.0
      thresh= 1.000E-02 alpha_mix =  0.700 |ddv_scf|^2 =  3.030E-06

      iter #   2 total cpu time :    40.0 secs   av.it.:  10.1
      thresh= 1.741E-04 alpha_mix =  0.700 |ddv_scf|^2 =  2.797E-06

      iter #   3 total cpu time :    40.5 secs   av.it.:   9.4
      thresh= 1.672E-04 alpha_mix =  0.700 |ddv_scf|^2 =  1.662E-09

      iter #   4 total cpu time :    41.1 secs   av.it.:   9.6
      thresh= 4.077E-06 alpha_mix =  0.700 |ddv_scf|^2 =  1.597E-11

      iter #   5 total cpu time :    41.5 secs   av.it.:   9.5
      thresh= 3.996E-07 alpha_mix =  0.700 |ddv_scf|^2 =  2.252E-13

     End of self-consistent calculation

     Convergence has been achieved 


     Representation #  2 mode #   2

     Self-consistent Calculation

      iter #   1 total cpu time :    42.1 secs   av.it.:   6.0
      thresh= 1.000E-02 alpha_mix =  0.700 |ddv_scf|^2 =  4.307E-05

      iter #   2 total cpu time :    42.6 secs   av.it.:  10.0
      thresh= 6.563E-04 alpha_mix =  0.700 |ddv_scf|^2 =  1.342E-04

      iter #   3 total cpu time :    43.1 secs   av.it.:   8.9
      thresh= 1.159E-03 alpha_mix =  0.700 |ddv_scf|^2 =  1.009E-08

      iter #   4 total cpu time :    43.7 secs   av.it.:  10.1
      thresh= 1.004E-05 alpha_mix =  0.700 |ddv_scf|^2 =  5.101E-10

      iter #   5 total cpu time :    44.3 secs   av.it.:  10.4
      thresh= 2.258E-06 alpha_mix =  0.700 |ddv_scf|^2 =  1.508E-11

      iter #   6 total cpu time :    44.7 secs   av.it.:   9.9
      thresh= 3.883E-07 alpha_mix =  0.700 |ddv_scf|^2 =  1.120E-13

     End of self-consistent calculation

     Convergence has been achieved 


     Representation #  3 modes #   3  4

     Self-consistent Calculation

      iter #   1 total cpu time :    45.4 secs   av.it.:   5.1
      thresh= 1.000E-02 alpha_mix =  0.700 |ddv_scf|^2 =  1.954E-08

      iter #   2 total cpu time :    46.3 secs   av.it.:  11.1
      thresh= 1.398E-05 alpha_mix =  0.700 |ddv_scf|^2 =  1.149E-09

      iter #   3 total cpu time :    47.2 secs   av.it.:  10.9
      thresh= 3.390E-06 alpha_mix =  0.700 |ddv_scf|^2 =  3.878E-11

      iter #   4 total cpu time :    48.0 secs   av.it.:  10.8
      thresh= 6.227E-07 alpha_mix =  0.700 |ddv_scf|^2 =  3.174E-13

     End of self-consistent calculation

     Convergence has been achieved 


     Representation #  4 modes #   5  6

     Self-consistent Calculation

      iter #   1 total cpu time :    48.7 secs   av.it.:   5.1
      thresh= 1.000E-02 alpha_mix =  0.700 |ddv_scf|^2 =  1.003E-07

      iter #   2 total cpu time :    49.6 secs   av.it.:  11.2
      thresh= 3.166E-05 alpha_mix =  0.700 |ddv_scf|^2 =  8.056E-09

      iter #   3 total cpu time :    50.5 secs   av.it.:  11.2
      thresh= 8.975E-06 alpha_mix =  0.700 |ddv_scf|^2 =  2.112E-10

      iter #   4 total cpu time :    51.3 secs   av.it.:  10.1
      thresh= 1.453E-06 alpha_mix =  0.700 |ddv_scf|^2 =  3.861E-13

     End of self-consistent calculation

     Convergence has been achieved 

     Number of q in the star =    4
     List of q in the star:
          1   0.500000000  -0.500000000   0.500000000
          2   0.500000000   0.500000000   0.500000000
          3  -0.500000000   0.500000000   0.500000000
          4   0.500000000   0.500000000  -0.500000000

     Diagonalizing the dynamical matrix

     q = (    0.500000000  -0.500000000   0.500000000 ) 

 **************************************************************************
     freq (    1) =       3.332222 [THz] =     111.150962 [cm-1]
     freq (    2) =       3.332222 [THz] =     111.150962 [cm-1]
     freq (    3) =      11.072827 [THz] =     369.349755 [cm-1]
     freq (    4) =      11.850768 [THz] =     395.299070 [cm-1]
     freq (    5) =      14.177054 [THz] =     472.895609 [cm-1]
     freq (    6) =      14.177054 [THz] =     472.895609 [cm-1]
 **************************************************************************

     Calculation of q =    0.0000000   0.5000000   0.0000000

   Info: using nr1, nr2, nr3 values from input

   Info: using nr1, nr2, nr3 values from input

     Parallelization info
     --------------------
     sticks:   dense  smooth     PW     G-vecs:    dense   smooth      PW
     Min         222     109     40                 4363     1545     322
     Max         223     110     42                 4364     1547     323
     Sum         889     439    163                17453     6183    1291



     bravais-lattice index     =            2
     lattice parameter (alat)  =      10.3540  a.u.
     unit-cell volume          =     277.5010 (a.u.)^3
     number of atoms/cell      =            2
     number of atomic types    =            1
     number of electrons       =         8.00
     number of Kohn-Sham states=            4
     kinetic-energy cutoff     =      30.0000  Ry
     charge density cutoff     =     240.0000  Ry
     Exchange-correlation      = SLA  PW   PBE  PBE ( 1  4  3  4 0 0)

     celldm(1)=  10.354000  celldm(2)=   0.000000  celldm(3)=   0.000000
     celldm(4)=   0.000000  celldm(5)=   0.000000  celldm(6)=   0.000000

     crystal axes: (cart. coord. in units of alat)
               a(1) = (  -0.500000   0.000000   0.500000 )  
               a(2) = (   0.000000   0.500000   0.500000 )  
               a(3) = (  -0.500000   0.500000   0.000000 )  

     reciprocal axes: (cart. coord. in units 2 pi/alat)
               b(1) = ( -1.000000 -1.000000  1.000000 )  
               b(2) = (  1.000000  1.000000  1.000000 )  
               b(3) = ( -1.000000  1.000000 -1.000000 )  


     PseudoPot. # 1 for Si read from file:
     /home/s1333534/quantum_espresso/qe-6.1/pseudo/si_pbe_v1.uspp.F.UPF.txt
     MD5 check sum: a056efeee980c13900f22a371efd63c1
     Pseudo is Ultrasoft + core correction, Zval =  4.0
     Generated by new atomic code, or converted to UPF format
     Using radial grid of  899 points,  6 beta functions with: 
                l(1) =   0
                l(2) =   0
                l(3) =   1
                l(4) =   1
                l(5) =   2
                l(6) =   2
     Q(r) pseudized with  8 coefficients,  rinner =    0.900   0.900   0.900
                                                       0.900   0.900

     atomic species   valence    mass     pseudopotential
        Si             4.00    28.08600     Si( 1.00)

     48 Sym. Ops., with inversion, found



   Cartesian axes

     site n.     atom                  positions (alat units)
         1           Si  tau(   1) = (   0.0000000   0.0000000   0.0000000  )
         2           Si  tau(   2) = (   0.2500000   0.2500000   0.2500000  )

     number of k points=    80
                       cart. coord. in units 2pi/alat
        k(    1) = (  -0.1250000   0.1250000   0.1250000), wk =   0.0312500
        k(    2) = (  -0.1250000   0.6250000   0.1250000), wk =   0.0000000
        k(    3) = (  -0.3750000   0.3750000  -0.1250000), wk =   0.0625000
        k(    4) = (  -0.3750000   0.8750000  -0.1250000), wk =   0.0000000
        k(    5) = (   0.3750000  -0.3750000   0.6250000), wk =   0.0625000
        k(    6) = (   0.3750000   0.1250000   0.6250000), wk =   0.0000000
        k(    7) = (   0.1250000  -0.1250000   0.3750000), wk =   0.0625000
        k(    8) = (   0.1250000   0.3750000   0.3750000), wk =   0.0000000
        k(    9) = (  -0.1250000   0.6250000   0.1250000), wk =   0.0312500
        k(   10) = (  -0.1250000   1.1250000   0.1250000), wk =   0.0000000
        k(   11) = (   0.6250000  -0.1250000   0.8750000), wk =   0.0625000
        k(   12) = (   0.6250000   0.3750000   0.8750000), wk =   0.0000000
        k(   13) = (   0.3750000   0.1250000   0.6250000), wk =   0.0625000
        k(   14) = (   0.3750000   0.6250000   0.6250000), wk =   0.0000000
        k(   15) = (  -0.1250000  -0.8750000   0.1250000), wk =   0.0312500
        k(   16) = (  -0.1250000  -0.3750000   0.1250000), wk =   0.0000000
        k(   17) = (  -0.3750000   0.3750000   0.3750000), wk =   0.0312500
        k(   18) = (  -0.3750000   0.8750000   0.3750000), wk =   0.0000000
        k(   19) = (   0.3750000  -0.3750000   1.1250000), wk =   0.0625000
        k(   20) = (   0.3750000   0.1250000   1.1250000), wk =   0.0000000
        k(   21) = (  -0.1250000  -0.1250000   0.1250000), wk =   0.0312500
        k(   22) = (  -0.1250000   0.3750000   0.1250000), wk =   0.0000000
        k(   23) = (   0.1250000  -0.3750000   0.3750000), wk =   0.0625000
        k(   24) = (   0.1250000   0.1250000   0.3750000), wk =   0.0000000
        k(   25) = (   0.3750000  -0.1250000   0.3750000), wk =   0.0312500
        k(   26) = (   0.3750000   0.3750000   0.3750000), wk =   0.0000000
        k(   27) = (   0.3750000   0.1250000   0.3750000), wk =   0.0312500
        k(   28) = (   0.3750000   0.6250000   0.3750000), wk =   0.0000000
        k(   29) = (  -0.6250000   0.3750000  -0.3750000), wk =   0.0625000
        k(   30) = (  -0.6250000   0.8750000  -0.3750000), wk =   0.0000000
        k(   31) = (  -0.3750000   0.6250000  -0.3750000), wk =   0.0312500
        k(   32) = (  -0.3750000   1.1250000  -0.3750000), wk =   0.0000000
        k(   33) = (  -0.3750000  -0.6250000  -0.3750000), wk =   0.0312500
        k(   34) = (  -0.3750000  -0.1250000  -0.3750000), wk =   0.0000000
        k(   35) = (  -0.3750000   0.1250000  -0.1250000), wk =   0.0625000
        k(   36) = (  -0.3750000   0.6250000  -0.1250000), wk =   0.0000000
        k(   37) = (  -0.1250000   0.3750000  -0.1250000), wk =   0.0312500
        k(   38) = (  -0.1250000   0.8750000  -0.1250000), wk =   0.0000000
        k(   39) = (  -0.1250000  -0.3750000  -0.1250000), wk =   0.0312500
        k(   40) = (  -0.1250000   0.1250000  -0.1250000), wk =   0.0000000
        k(   41) = (  -0.1250000  -0.6250000   0.1250000), wk =   0.0312500
        k(   42) = (  -0.1250000  -0.1250000   0.1250000), wk =   0.0000000
        k(   43) = (   0.6250000  -0.1250000  -0.1250000), wk =   0.0625000
        k(   44) = (   0.6250000   0.3750000  -0.1250000), wk =   0.0000000
        k(   45) = (   0.6250000   0.1250000   0.1250000), wk =   0.0625000
        k(   46) = (   0.6250000   0.6250000   0.1250000), wk =   0.0000000
        k(   47) = (  -0.8750000   0.1250000  -0.6250000), wk =   0.0625000
        k(   48) = (  -0.8750000   0.6250000  -0.6250000), wk =   0.0000000
        k(   49) = (  -0.1250000   0.6250000  -0.8750000), wk =   0.0625000
        k(   50) = (  -0.1250000   1.1250000  -0.8750000), wk =   0.0000000
        k(   51) = (  -0.1250000   0.8750000  -0.6250000), wk =   0.0625000
        k(   52) = (  -0.1250000   1.3750000  -0.6250000), wk =   0.0000000
        k(   53) = (  -0.1250000  -0.8750000  -0.6250000), wk =   0.0625000
        k(   54) = (  -0.1250000  -0.3750000  -0.6250000), wk =   0.0000000
        k(   55) = (   0.8750000  -0.6250000   0.1250000), wk =   0.0625000
        k(   56) = (   0.8750000  -0.1250000   0.1250000), wk =   0.0000000
        k(   57) = (  -0.6250000  -0.1250000  -0.3750000), wk =   0.0625000
        k(   58) = (  -0.6250000   0.3750000  -0.3750000), wk =   0.0000000
        k(   59) = (   0.1250000   0.3750000  -0.6250000), wk =   0.0625000
        k(   60) = (   0.1250000   0.8750000  -0.6250000), wk =   0.0000000
        k(   61) = (   0.1250000   0.6250000  -0.3750000), wk =   0.0625000
        k(   62) = (   0.1250000   1.1250000  -0.3750000), wk =   0.0000000
        k(   63) = (   0.1250000  -0.6250000  -0.3750000), wk =   0.0625000
        k(   64) = (   0.1250000  -0.1250000  -0.3750000), wk =   0.0000000
        k(   65) = (   0.6250000  -0.3750000  -0.1250000), wk =   0.0625000
        k(   66) = (   0.6250000   0.1250000  -0.1250000), wk =   0.0000000
        k(   67) = (  -0.1250000   0.8750000   0.1250000), wk =   0.0312500
        k(   68) = (  -0.1250000   1.3750000   0.1250000), wk =   0.0000000
        k(   69) = (  -0.8750000  -0.1250000  -0.1250000), wk =   0.0625000
        k(   70) = (  -0.8750000   0.3750000  -0.1250000), wk =   0.0000000
        k(   71) = (  -0.8750000   0.1250000   0.1250000), wk =   0.0625000
        k(   72) = (  -0.8750000   0.6250000   0.1250000), wk =   0.0000000
        k(   73) = (  -0.3750000  -0.3750000   0.3750000), wk =   0.0312500
        k(   74) = (  -0.3750000   0.1250000   0.3750000), wk =   0.0000000
        k(   75) = (  -1.1250000   0.3750000  -0.3750000), wk =   0.0625000
        k(   76) = (  -1.1250000   0.8750000  -0.3750000), wk =   0.0000000
        k(   77) = (  -0.3750000   1.1250000  -0.3750000), wk =   0.0312500
        k(   78) = (  -0.3750000   1.6250000  -0.3750000), wk =   0.0000000
        k(   79) = (  -0.3750000  -1.1250000  -0.3750000), wk =   0.0312500
        k(   80) = (  -0.3750000  -0.6250000  -0.3750000), wk =   0.0000000

     Dense  grid:    17453 G-vectors     FFT dimensions: (  40,  40,  40)

     Smooth grid:     6183 G-vectors     FFT dimensions: (  25,  25,  25)

     Estimated max dynamical RAM per process >       1.79MB

     Estimated total allocated dynamical RAM >       7.17MB

     The potential is recalculated from file :
     ./_ph0/silicon.10.354.save/charge-density.dat

     Starting wfc are    8 atomic wfcs

     Band Structure Calculation
     Davidson diagonalization with overlap

     ethr =  1.25E-10,  avg # of iterations = 12.2

     total cpu time spent up to now is        3.9 secs

     End of band structure calculation

          k =-0.1250 0.1250 0.1250 (   773 PWs)   bands (ev):

    -5.6595   4.3279   5.6374   5.6374

          k =-0.1250 0.6250 0.1250 (   775 PWs)   bands (ev):

    -4.1093   1.0066   3.3174   3.7672

          k =-0.3750 0.3750-0.1250 (   776 PWs)   bands (ev):

    -4.6390   1.3461   3.6624   5.1589

          k =-0.3750 0.8750-0.1250 (   762 PWs)   bands (ev):

    -2.4809  -0.9457   1.9738   3.0431

          k = 0.3750-0.3750 0.6250 (   773 PWs)   bands (ev):

    -3.5081  -0.7181   3.6803   4.3927

          k = 0.3750 0.1250 0.6250 (   770 PWs)   bands (ev):

    -3.6970   0.1419   2.6783   4.0404

          k = 0.1250-0.1250 0.3750 (   781 PWs)   bands (ev):

    -5.1347   2.7148   4.6362   4.6966

          k = 0.1250 0.3750 0.3750 (   776 PWs)   bands (ev):

    -4.6390   1.3461   3.6624   5.1589

          k =-0.1250 0.6250 0.1250 (   775 PWs)   bands (ev):

    -4.1093   1.0066   3.3174   3.7672

          k =-0.1250 1.1250 0.1250 (   763 PWs)   bands (ev):

    -2.6461  -0.8497   2.5793   3.3028

          k = 0.6250-0.1250 0.8750 (   762 PWs)   bands (ev):

    -2.4809  -0.9457   1.9738   3.0431

          k = 0.6250 0.3750 0.8750 (   770 PWs)   bands (ev):

    -3.6970   0.1419   2.6783   4.0404

          k = 0.3750 0.1250 0.6250 (   770 PWs)   bands (ev):

    -3.6970   0.1419   2.6783   4.0404

          k = 0.3750 0.6250 0.6250 (   773 PWs)   bands (ev):

    -3.5081  -0.7181   3.6803   4.3927

          k =-0.1250-0.8750 0.1250 (   763 PWs)   bands (ev):

    -2.6461  -0.8497   2.5793   3.3028

          k =-0.1250-0.3750 0.1250 (   781 PWs)   bands (ev):

    -5.1347   2.7148   4.6362   4.6966

          k =-0.3750 0.3750 0.3750 (   769 PWs)   bands (ev):

    -4.2093   0.0658   4.8539   4.8539

          k =-0.3750 0.8750 0.3750 (   769 PWs)   bands (ev):

    -3.0152  -0.6400   2.0294   4.0780

          k = 0.3750-0.3750 1.1250 (   769 PWs)   bands (ev):

    -3.0152  -0.6400   2.0294   4.0780

          k = 0.3750 0.1250 1.1250 (   762 PWs)   bands (ev):

    -2.4809  -0.9457   1.9738   3.0431

          k =-0.1250-0.1250 0.1250 (   773 PWs)   bands (ev):

    -5.6595   4.3279   5.6374   5.6374

          k =-0.1250 0.3750 0.1250 (   781 PWs)   bands (ev):

    -5.1347   2.7148   4.6362   4.6966

          k = 0.1250-0.3750 0.3750 (   776 PWs)   bands (ev):

    -4.6390   1.3461   3.6624   5.1589

          k = 0.1250 0.1250 0.3750 (   781 PWs)   bands (ev):

    -5.1347   2.7148   4.6362   4.6966

          k = 0.3750-0.1250 0.3750 (   776 PWs)   bands (ev):

    -4.6390   1.3461   3.6624   5.1589

          k = 0.3750 0.3750 0.3750 (   769 PWs)   bands (ev):

    -4.2093   0.0658   4.8539   4.8539

          k = 0.3750 0.1250 0.3750 (   776 PWs)   bands (ev):

    -4.6390   1.3461   3.6624   5.1589

          k = 0.3750 0.6250 0.3750 (   773 PWs)   bands (ev):

    -3.5081  -0.7181   3.6803   4.3927

          k =-0.6250 0.3750-0.3750 (   773 PWs)   bands (ev):

    -3.5081  -0.7181   3.6803   4.3927

          k =-0.6250 0.8750-0.3750 (   770 PWs)   bands (ev):

    -3.6970   0.1419   2.6783   4.0404

          k =-0.3750 0.6250-0.3750 (   773 PWs)   bands (ev):

    -3.5081  -0.7181   3.6803   4.3927

          k =-0.3750 1.1250-0.3750 (   769 PWs)   bands (ev):

    -3.0152  -0.6400   2.0294   4.0780

          k =-0.3750-0.6250-0.3750 (   773 PWs)   bands (ev):

    -3.5081  -0.7181   3.6803   4.3927

          k =-0.3750-0.1250-0.3750 (   776 PWs)   bands (ev):

    -4.6390   1.3461   3.6624   5.1589

          k =-0.3750 0.1250-0.1250 (   781 PWs)   bands (ev):

    -5.1347   2.7148   4.6362   4.6966

          k =-0.3750 0.6250-0.1250 (   770 PWs)   bands (ev):

    -3.6970   0.1419   2.6783   4.0404

          k =-0.1250 0.3750-0.1250 (   781 PWs)   bands (ev):

    -5.1347   2.7148   4.6362   4.6966

          k =-0.1250 0.8750-0.1250 (   763 PWs)   bands (ev):

    -2.6461  -0.8497   2.5793   3.3028

          k =-0.1250-0.3750-0.1250 (   781 PWs)   bands (ev):

    -5.1347   2.7148   4.6362   4.6966

          k =-0.1250 0.1250-0.1250 (   773 PWs)   bands (ev):

    -5.6595   4.3279   5.6374   5.6374

          k =-0.1250-0.6250 0.1250 (   775 PWs)   bands (ev):

    -4.1093   1.0066   3.3174   3.7672

          k =-0.1250-0.1250 0.1250 (   773 PWs)   bands (ev):

    -5.6595   4.3279   5.6374   5.6374

          k = 0.6250-0.1250-0.1250 (   775 PWs)   bands (ev):

    -4.1093   1.0066   3.3174   3.7672

          k = 0.6250 0.3750-0.1250 (   770 PWs)   bands (ev):

    -3.6970   0.1419   2.6783   4.0404

          k = 0.6250 0.1250 0.1250 (   775 PWs)   bands (ev):

    -4.1093   1.0066   3.3174   3.7672

          k = 0.6250 0.6250 0.1250 (   769 PWs)   bands (ev):

    -3.0152  -0.6400   2.0294   4.0780

          k =-0.8750 0.1250-0.6250 (   762 PWs)   bands (ev):

    -2.4809  -0.9457   1.9738   3.0431

          k =-0.8750 0.6250-0.6250 (   776 PWs)   bands (ev):

    -4.6390   1.3461   3.6624   5.1589

          k =-0.1250 0.6250-0.8750 (   762 PWs)   bands (ev):

    -2.4809  -0.9457   1.9738   3.0431

          k =-0.1250 1.1250-0.8750 (   763 PWs)   bands (ev):

    -2.6461  -0.8497   2.5793   3.3028

          k =-0.1250 0.8750-0.6250 (   762 PWs)   bands (ev):

    -2.4809  -0.9457   1.9738   3.0431

          k =-0.1250 1.3750-0.6250 (   769 PWs)   bands (ev):

    -3.0152  -0.6400   2.0294   4.0780

          k =-0.1250-0.8750-0.6250 (   762 PWs)   bands (ev):

    -2.4809  -0.9457   1.9738   3.0431

          k =-0.1250-0.3750-0.6250 (   770 PWs)   bands (ev):

    -3.6970   0.1419   2.6783   4.0404

          k = 0.8750-0.6250 0.1250 (   762 PWs)   bands (ev):

    -2.4809  -0.9457   1.9738   3.0431

          k = 0.8750-0.1250 0.1250 (   763 PWs)   bands (ev):

    -2.6461  -0.8497   2.5793   3.3028

          k =-0.6250-0.1250-0.3750 (   770 PWs)   bands (ev):

    -3.6970   0.1419   2.6783   4.0404

          k =-0.6250 0.3750-0.3750 (   773 PWs)   bands (ev):

    -3.5081  -0.7181   3.6803   4.3927

          k = 0.1250 0.3750-0.6250 (   770 PWs)   bands (ev):

    -3.6970   0.1419   2.6783   4.0404

          k = 0.1250 0.8750-0.6250 (   762 PWs)   bands (ev):

    -2.4809  -0.9457   1.9738   3.0431

          k = 0.1250 0.6250-0.3750 (   770 PWs)   bands (ev):

    -3.6970   0.1419   2.6783   4.0404

          k = 0.1250 1.1250-0.3750 (   762 PWs)   bands (ev):

    -2.4809  -0.9457   1.9738   3.0431

          k = 0.1250-0.6250-0.3750 (   770 PWs)   bands (ev):

    -3.6970   0.1419   2.6783   4.0404

          k = 0.1250-0.1250-0.3750 (   781 PWs)   bands (ev):

    -5.1347   2.7148   4.6362   4.6966

          k = 0.6250-0.3750-0.1250 (   770 PWs)   bands (ev):

    -3.6970   0.1419   2.6783   4.0404

          k = 0.6250 0.1250-0.1250 (   775 PWs)   bands (ev):

    -4.1093   1.0066   3.3174   3.7672

          k =-0.1250 0.8750 0.1250 (   763 PWs)   bands (ev):

    -2.6461  -0.8497   2.5793   3.3028

          k =-0.1250 1.3750 0.1250 (   775 PWs)   bands (ev):

    -4.1093   1.0066   3.3174   3.7672

          k =-0.8750-0.1250-0.1250 (   763 PWs)   bands (ev):

    -2.6461  -0.8497   2.5793   3.3028

          k =-0.8750 0.3750-0.1250 (   762 PWs)   bands (ev):

    -2.4809  -0.9457   1.9738   3.0431

          k =-0.8750 0.1250 0.1250 (   763 PWs)   bands (ev):

    -2.6461  -0.8497   2.5793   3.3028

          k =-0.8750 0.6250 0.1250 (   762 PWs)   bands (ev):

    -2.4809  -0.9457   1.9738   3.0431

          k =-0.3750-0.3750 0.3750 (   769 PWs)   bands (ev):

    -4.2093   0.0658   4.8539   4.8539

          k =-0.3750 0.1250 0.3750 (   776 PWs)   bands (ev):

    -4.6390   1.3461   3.6624   5.1589

          k =-1.1250 0.3750-0.3750 (   769 PWs)   bands (ev):

    -3.0152  -0.6400   2.0294   4.0780

          k =-1.1250 0.8750-0.3750 (   775 PWs)   bands (ev):

    -4.1093   1.0066   3.3174   3.7672

          k =-0.3750 1.1250-0.3750 (   769 PWs)   bands (ev):

    -3.0152  -0.6400   2.0294   4.0780

          k =-0.3750 1.6250-0.3750 (   769 PWs)   bands (ev):

    -4.2093   0.0658   4.8539   4.8539

          k =-0.3750-1.1250-0.3750 (   769 PWs)   bands (ev):

    -3.0152  -0.6400   2.0294   4.0780

          k =-0.3750-0.6250-0.3750 (   773 PWs)   bands (ev):

    -3.5081  -0.7181   3.6803   4.3927

     highest occupied level (ev):     5.6374

     Writing output data file silicon.10.354.save

                                                                                

     bravais-lattice index     =            2
     lattice parameter (alat)  =      10.3540  a.u.
     unit-cell volume          =     277.5010 (a.u.)^3
     number of atoms/cell      =            2
     number of atomic types    =            1
     kinetic-energy cut-off    =      30.0000  Ry
     charge density cut-off    =     240.0000  Ry
     convergence threshold     =      1.0E-12
     beta                      =       0.7000
     number of iterations used =            4
     Exchange-correlation      = SLA  PW   PBE  PBE ( 1  4  3  4 0 0)


     celldm(1)=   10.35400  celldm(2)=    0.00000  celldm(3)=    0.00000
     celldm(4)=    0.00000  celldm(5)=    0.00000  celldm(6)=    0.00000

     crystal axes: (cart. coord. in units of alat)
               a(1) = ( -0.5000  0.0000  0.5000 )  
               a(2) = (  0.0000  0.5000  0.5000 )  
               a(3) = ( -0.5000  0.5000  0.0000 )  

     reciprocal axes: (cart. coord. in units 2 pi/alat)
               b(1) = ( -1.0000 -1.0000  1.0000 )  
               b(2) = (  1.0000  1.0000  1.0000 )  
               b(3) = ( -1.0000  1.0000 -1.0000 )  


     Atoms inside the unit cell: 

     Cartesian axes

     site n.  atom      mass           positions (alat units)
        1     Si  28.0860   tau(    1) = (    0.00000    0.00000    0.00000  )
        2     Si  28.0860   tau(    2) = (    0.25000    0.25000    0.25000  )

     Computing dynamical matrix for 
                    q = (   0.0000000   0.5000000   0.0000000 )

      8 Sym.Ops. (no q -> -q+G )


     G cutoff =  651.7302  (   4363 G-vectors)     FFT grid: ( 40, 40, 40)
     G cutoff =  325.8651  (   1545 G-vectors)  smooth grid: ( 25, 25, 25)
     number of k points=    80

     PseudoPot. # 1 for Si read from file:
     /home/s1333534/quantum_espresso/qe-6.1/pseudo/si_pbe_v1.uspp.F.UPF.txt
     MD5 check sum: a056efeee980c13900f22a371efd63c1
     Pseudo is Ultrasoft + core correction, Zval =  4.0
     Generated by new atomic code, or converted to UPF format
     Using radial grid of  899 points,  6 beta functions with: 
                l(1) =   0
                l(2) =   0
                l(3) =   1
                l(4) =   1
                l(5) =   2
                l(6) =   2
     Q(r) pseudized with  8 coefficients,  rinner =    0.900   0.900   0.900
                                                       0.900   0.900

     Mode symmetry, C_4v (4mm)  point group:


     Atomic displacements:
     There are   4 irreducible representations

     Representation     1      1 modes -A_1  G_1 D_1  To be done

     Representation     2      1 modes -B_2  G_4 D_2'  To be done

     Representation     3      2 modes -E    G_5 D_5  To be done

     Representation     4      2 modes -E    G_5 D_5  To be done



     Alpha used in Ewald sum =   2.5000
     PHONON       :    40.33s CPU        53.81s WALL



     Representation #  1 mode #   1

     Self-consistent Calculation

      iter #   1 total cpu time :    54.2 secs   av.it.:   6.2
      thresh= 1.000E-02 alpha_mix =  0.700 |ddv_scf|^2 =  3.718E-04

      iter #   2 total cpu time :    54.8 secs   av.it.:   9.5
      thresh= 1.928E-03 alpha_mix =  0.700 |ddv_scf|^2 =  4.950E-03

      iter #   3 total cpu time :    55.3 secs   av.it.:   7.5
      thresh= 7.035E-03 alpha_mix =  0.700 |ddv_scf|^2 =  7.329E-09

      iter #   4 total cpu time :    55.8 secs   av.it.:  10.3
      thresh= 8.561E-06 alpha_mix =  0.700 |ddv_scf|^2 =  7.372E-10

      iter #   5 total cpu time :    56.3 secs   av.it.:   9.9
      thresh= 2.715E-06 alpha_mix =  0.700 |ddv_scf|^2 =  8.026E-11

      iter #   6 total cpu time :    56.8 secs   av.it.:   9.5
      thresh= 8.959E-07 alpha_mix =  0.700 |ddv_scf|^2 =  2.327E-13

     End of self-consistent calculation

     Convergence has been achieved 


     Representation #  2 mode #   2

     Self-consistent Calculation

      iter #   1 total cpu time :    57.2 secs   av.it.:   5.1
      thresh= 1.000E-02 alpha_mix =  0.700 |ddv_scf|^2 =  5.896E-07

      iter #   2 total cpu time :    57.7 secs   av.it.:  10.6
      thresh= 7.678E-05 alpha_mix =  0.700 |ddv_scf|^2 =  1.633E-07

      iter #   3 total cpu time :    58.2 secs   av.it.:  10.2
      thresh= 4.042E-05 alpha_mix =  0.700 |ddv_scf|^2 =  1.673E-09

      iter #   4 total cpu time :    58.7 secs   av.it.:  10.3
      thresh= 4.090E-06 alpha_mix =  0.700 |ddv_scf|^2 =  6.666E-11

      iter #   5 total cpu time :    59.2 secs   av.it.:  10.5
      thresh= 8.165E-07 alpha_mix =  0.700 |ddv_scf|^2 =  3.873E-13

     End of self-consistent calculation

     Convergence has been achieved 


     Representation #  3 modes #   3  4

     Self-consistent Calculation

      iter #   1 total cpu time :    60.0 secs   av.it.:   5.2
      thresh= 1.000E-02 alpha_mix =  0.700 |ddv_scf|^2 =  1.044E-07

      iter #   2 total cpu time :    61.0 secs   av.it.:  11.7
      thresh= 3.231E-05 alpha_mix =  0.700 |ddv_scf|^2 =  1.440E-08

      iter #   3 total cpu time :    62.0 secs   av.it.:  11.3
      thresh= 1.200E-05 alpha_mix =  0.700 |ddv_scf|^2 =  2.425E-10

      iter #   4 total cpu time :    63.0 secs   av.it.:  10.8
      thresh= 1.557E-06 alpha_mix =  0.700 |ddv_scf|^2 =  5.752E-13

     End of self-consistent calculation

     Convergence has been achieved 


     Representation #  4 modes #   5  6

     Self-consistent Calculation

      iter #   1 total cpu time :    64.1 secs   av.it.:   5.3
      thresh= 1.000E-02 alpha_mix =  0.700 |ddv_scf|^2 =  9.568E-08

      iter #   2 total cpu time :    65.4 secs   av.it.:  11.6
      thresh= 3.093E-05 alpha_mix =  0.700 |ddv_scf|^2 =  1.286E-08

      iter #   3 total cpu time :    66.5 secs   av.it.:  11.4
      thresh= 1.134E-05 alpha_mix =  0.700 |ddv_scf|^2 =  2.479E-10

      iter #   4 total cpu time :    67.4 secs   av.it.:  11.1
      thresh= 1.574E-06 alpha_mix =  0.700 |ddv_scf|^2 =  6.129E-13

     End of self-consistent calculation

     Convergence has been achieved 

     Number of q in the star =    6
     List of q in the star:
          1   0.000000000   0.500000000   0.000000000
          2   0.000000000  -0.500000000   0.000000000
          3   0.500000000   0.000000000   0.000000000
          4   0.000000000   0.000000000   0.500000000
          5   0.000000000   0.000000000  -0.500000000
          6  -0.500000000   0.000000000   0.000000000

     Diagonalizing the dynamical matrix

     q = (    0.000000000   0.500000000   0.000000000 ) 

 **************************************************************************
     freq (    1) =       3.781778 [THz] =     126.146528 [cm-1]
     freq (    2) =       3.781778 [THz] =     126.146528 [cm-1]
     freq (    3) =       7.014078 [THz] =     233.964472 [cm-1]
     freq (    4) =      13.716397 [THz] =     457.529771 [cm-1]
     freq (    5) =      13.716397 [THz] =     457.529771 [cm-1]
     freq (    6) =      14.371668 [THz] =     479.387259 [cm-1]
 **************************************************************************

     Mode symmetry, C_4v (4mm)  point group:

     freq (  1 -  2) =        126.1  [cm-1]   --> E    G_5 D_5       
     freq (  3 -  3) =        234.0  [cm-1]   --> A_1  G_1 D_1       
     freq (  4 -  5) =        457.5  [cm-1]   --> E    G_5 D_5       
     freq (  6 -  6) =        479.4  [cm-1]   --> B_2  G_4 D_2'      

     Calculation of q =    0.7500000  -0.2500000   0.7500000

   Info: using nr1, nr2, nr3 values from input

   Info: using nr1, nr2, nr3 values from input

     Parallelization info
     --------------------
     sticks:   dense  smooth     PW     G-vecs:    dense   smooth      PW
     Min         222     109     40                 4363     1545     362
     Max         223     110     41                 4364     1546     366
     Sum         889     439    163                17453     6183    1459



     bravais-lattice index     =            2
     lattice parameter (alat)  =      10.3540  a.u.
     unit-cell volume          =     277.5010 (a.u.)^3
     number of atoms/cell      =            2
     number of atomic types    =            1
     number of electrons       =         8.00
     number of Kohn-Sham states=            4
     kinetic-energy cutoff     =      30.0000  Ry
     charge density cutoff     =     240.0000  Ry
     Exchange-correlation      = SLA  PW   PBE  PBE ( 1  4  3  4 0 0)

     celldm(1)=  10.354000  celldm(2)=   0.000000  celldm(3)=   0.000000
     celldm(4)=   0.000000  celldm(5)=   0.000000  celldm(6)=   0.000000

     crystal axes: (cart. coord. in units of alat)
               a(1) = (  -0.500000   0.000000   0.500000 )  
               a(2) = (   0.000000   0.500000   0.500000 )  
               a(3) = (  -0.500000   0.500000   0.000000 )  

     reciprocal axes: (cart. coord. in units 2 pi/alat)
               b(1) = ( -1.000000 -1.000000  1.000000 )  
               b(2) = (  1.000000  1.000000  1.000000 )  
               b(3) = ( -1.000000  1.000000 -1.000000 )  


     PseudoPot. # 1 for Si read from file:
     /home/s1333534/quantum_espresso/qe-6.1/pseudo/si_pbe_v1.uspp.F.UPF.txt
     MD5 check sum: a056efeee980c13900f22a371efd63c1
     Pseudo is Ultrasoft + core correction, Zval =  4.0
     Generated by new atomic code, or converted to UPF format
     Using radial grid of  899 points,  6 beta functions with: 
                l(1) =   0
                l(2) =   0
                l(3) =   1
                l(4) =   1
                l(5) =   2
                l(6) =   2
     Q(r) pseudized with  8 coefficients,  rinner =    0.900   0.900   0.900
                                                       0.900   0.900

     atomic species   valence    mass     pseudopotential
        Si             4.00    28.08600     Si( 1.00)

     48 Sym. Ops., with inversion, found



   Cartesian axes

     site n.     atom                  positions (alat units)
         1           Si  tau(   1) = (   0.0000000   0.0000000   0.0000000  )
         2           Si  tau(   2) = (   0.2500000   0.2500000   0.2500000  )

     number of k points=   288

     Number of k-points >= 100: set verbosity='high' to print them.

     Dense  grid:    17453 G-vectors     FFT dimensions: (  40,  40,  40)

     Smooth grid:     6183 G-vectors     FFT dimensions: (  25,  25,  25)

     Estimated max dynamical RAM per process >       1.79MB

     Estimated total allocated dynamical RAM >       7.17MB

     The potential is recalculated from file :
     ./_ph0/silicon.10.354.save/charge-density.dat

     Starting wfc are    8 atomic wfcs

     Band Structure Calculation
     Davidson diagonalization with overlap

     ethr =  1.25E-10,  avg # of iterations = 12.1

     total cpu time spent up to now is        7.2 secs

     End of band structure calculation

     Number of k-points >= 100: set verbosity='high' to print the bands.

     highest occupied level (ev):     5.6374

     Writing output data file silicon.10.354.save

                                                                                

     bravais-lattice index     =            2
     lattice parameter (alat)  =      10.3540  a.u.
     unit-cell volume          =     277.5010 (a.u.)^3
     number of atoms/cell      =            2
     number of atomic types    =            1
     kinetic-energy cut-off    =      30.0000  Ry
     charge density cut-off    =     240.0000  Ry
     convergence threshold     =      1.0E-12
     beta                      =       0.7000
     number of iterations used =            4
     Exchange-correlation      = SLA  PW   PBE  PBE ( 1  4  3  4 0 0)


     celldm(1)=   10.35400  celldm(2)=    0.00000  celldm(3)=    0.00000
     celldm(4)=    0.00000  celldm(5)=    0.00000  celldm(6)=    0.00000

     crystal axes: (cart. coord. in units of alat)
               a(1) = ( -0.5000  0.0000  0.5000 )  
               a(2) = (  0.0000  0.5000  0.5000 )  
               a(3) = ( -0.5000  0.5000  0.0000 )  

     reciprocal axes: (cart. coord. in units 2 pi/alat)
               b(1) = ( -1.0000 -1.0000  1.0000 )  
               b(2) = (  1.0000  1.0000  1.0000 )  
               b(3) = ( -1.0000  1.0000 -1.0000 )  


     Atoms inside the unit cell: 

     Cartesian axes

     site n.  atom      mass           positions (alat units)
        1     Si  28.0860   tau(    1) = (    0.00000    0.00000    0.00000  )
        2     Si  28.0860   tau(    2) = (    0.25000    0.25000    0.25000  )

     Computing dynamical matrix for 
                    q = (   0.7500000  -0.2500000   0.7500000 )

      2 Sym.Ops. (no q -> -q+G )


     G cutoff =  651.7302  (   4363 G-vectors)     FFT grid: ( 40, 40, 40)
     G cutoff =  325.8651  (   1546 G-vectors)  smooth grid: ( 25, 25, 25)
     number of k points=   288

     PseudoPot. # 1 for Si read from file:
     /home/s1333534/quantum_espresso/qe-6.1/pseudo/si_pbe_v1.uspp.F.UPF.txt
     MD5 check sum: a056efeee980c13900f22a371efd63c1
     Pseudo is Ultrasoft + core correction, Zval =  4.0
     Generated by new atomic code, or converted to UPF format
     Using radial grid of  899 points,  6 beta functions with: 
                l(1) =   0
                l(2) =   0
                l(3) =   1
                l(4) =   1
                l(5) =   2
                l(6) =   2
     Q(r) pseudized with  8 coefficients,  rinner =    0.900   0.900   0.900
                                                       0.900   0.900

     Mode symmetry, C_s (m)     point group:


     Atomic displacements:
     There are   6 irreducible representations

     Representation     1      1 modes -A'  To be done

     Representation     2      1 modes -A'  To be done

     Representation     3      1 modes -A'  To be done

     Representation     4      1 modes -A'  To be done

     Representation     5      1 modes -A''  To be done

     Representation     6      1 modes -A''  To be done



     Alpha used in Ewald sum =   2.5000
     PHONON       :  0m54.94s CPU     1m12.86s WALL



     Representation #  1 mode #   1

     Self-consistent Calculation

      iter #   1 total cpu time :    73.8 secs   av.it.:   5.7
      thresh= 1.000E-02 alpha_mix =  0.700 |ddv_scf|^2 =  7.588E-06

      iter #   2 total cpu time :    75.2 secs   av.it.:  10.7
      thresh= 2.755E-04 alpha_mix =  0.700 |ddv_scf|^2 =  2.035E-05

      iter #   3 total cpu time :    76.7 secs   av.it.:   9.4
      thresh= 4.511E-04 alpha_mix =  0.700 |ddv_scf|^2 =  1.363E-07

      iter #   4 total cpu time :    78.1 secs   av.it.:  10.1
      thresh= 3.691E-05 alpha_mix =  0.700 |ddv_scf|^2 =  2.736E-09

      iter #   5 total cpu time :    79.7 secs   av.it.:  10.6
      thresh= 5.231E-06 alpha_mix =  0.700 |ddv_scf|^2 =  4.659E-10

      iter #   6 total cpu time :    81.1 secs   av.it.:  10.6
      thresh= 2.158E-06 alpha_mix =  0.700 |ddv_scf|^2 =  7.345E-12

      iter #   7 total cpu time :    82.5 secs   av.it.:  10.7
      thresh= 2.710E-07 alpha_mix =  0.700 |ddv_scf|^2 =  2.809E-13

     End of self-consistent calculation

     Convergence has been achieved 


     Representation #  2 mode #   2

     Self-consistent Calculation

      iter #   1 total cpu time :    83.6 secs   av.it.:   5.8
      thresh= 1.000E-02 alpha_mix =  0.700 |ddv_scf|^2 =  1.357E-05

      iter #   2 total cpu time :    85.0 secs   av.it.:  10.6
      thresh= 3.684E-04 alpha_mix =  0.700 |ddv_scf|^2 =  3.945E-05

      iter #   3 total cpu time :    86.3 secs   av.it.:   9.2
      thresh= 6.281E-04 alpha_mix =  0.700 |ddv_scf|^2 =  9.283E-08

      iter #   4 total cpu time :    87.6 secs   av.it.:  10.4
      thresh= 3.047E-05 alpha_mix =  0.700 |ddv_scf|^2 =  3.095E-09

      iter #   5 total cpu time :    89.0 secs   av.it.:  10.6
      thresh= 5.563E-06 alpha_mix =  0.700 |ddv_scf|^2 =  6.301E-10

      iter #   6 total cpu time :    90.4 secs   av.it.:  10.5
      thresh= 2.510E-06 alpha_mix =  0.700 |ddv_scf|^2 =  6.594E-12

      iter #   7 total cpu time :    91.7 secs   av.it.:  10.7
      thresh= 2.568E-07 alpha_mix =  0.700 |ddv_scf|^2 =  2.362E-13

     End of self-consistent calculation

     Convergence has been achieved 


     Representation #  3 mode #   3

     Self-consistent Calculation

      iter #   1 total cpu time :    92.9 secs   av.it.:   5.7
      thresh= 1.000E-02 alpha_mix =  0.700 |ddv_scf|^2 =  1.063E-05

      iter #   2 total cpu time :    94.3 secs   av.it.:  10.7
      thresh= 3.260E-04 alpha_mix =  0.700 |ddv_scf|^2 =  2.900E-05

      iter #   3 total cpu time :    95.5 secs   av.it.:   9.2
      thresh= 5.385E-04 alpha_mix =  0.700 |ddv_scf|^2 =  1.617E-07

      iter #   4 total cpu time :    96.8 secs   av.it.:  10.1
      thresh= 4.021E-05 alpha_mix =  0.700 |ddv_scf|^2 =  3.153E-09

      iter #   5 total cpu time :    98.2 secs   av.it.:  10.7
      thresh= 5.615E-06 alpha_mix =  0.700 |ddv_scf|^2 =  6.177E-10

      iter #   6 total cpu time :    99.5 secs   av.it.:  10.5
      thresh= 2.485E-06 alpha_mix =  0.700 |ddv_scf|^2 =  4.592E-12

      iter #   7 total cpu time :   100.8 secs   av.it.:  10.7
      thresh= 2.143E-07 alpha_mix =  0.700 |ddv_scf|^2 =  1.351E-13

     End of self-consistent calculation

     Convergence has been achieved 


     Representation #  4 mode #   4

     Self-consistent Calculation

      iter #   1 total cpu time :   101.9 secs   av.it.:   5.5
      thresh= 1.000E-02 alpha_mix =  0.700 |ddv_scf|^2 =  4.643E-06

      iter #   2 total cpu time :   103.3 secs   av.it.:  10.9
      thresh= 2.155E-04 alpha_mix =  0.700 |ddv_scf|^2 =  9.884E-06

      iter #   3 total cpu time :   104.5 secs   av.it.:   9.7
      thresh= 3.144E-04 alpha_mix =  0.700 |ddv_scf|^2 =  2.138E-07

      iter #   4 total cpu time :   105.9 secs   av.it.:  10.0
      thresh= 4.624E-05 alpha_mix =  0.700 |ddv_scf|^2 =  2.703E-09

      iter #   5 total cpu time :   107.2 secs   av.it.:  10.7
      thresh= 5.199E-06 alpha_mix =  0.700 |ddv_scf|^2 =  5.054E-10

      iter #   6 total cpu time :   108.9 secs   av.it.:  10.5
      thresh= 2.248E-06 alpha_mix =  0.700 |ddv_scf|^2 =  3.083E-12

      iter #   7 total cpu time :   110.2 secs   av.it.:  10.8
      thresh= 1.756E-07 alpha_mix =  0.700 |ddv_scf|^2 =  1.436E-13

     End of self-consistent calculation

     Convergence has been achieved 


     Representation #  5 mode #   5

     Self-consistent Calculation

      iter #   1 total cpu time :   111.3 secs   av.it.:   5.2
      thresh= 1.000E-02 alpha_mix =  0.700 |ddv_scf|^2 =  4.823E-07

      iter #   2 total cpu time :   112.7 secs   av.it.:  10.4
      thresh= 6.945E-05 alpha_mix =  0.700 |ddv_scf|^2 =  7.874E-08

      iter #   3 total cpu time :   114.1 secs   av.it.:  10.2
      thresh= 2.806E-05 alpha_mix =  0.700 |ddv_scf|^2 =  1.050E-09

      iter #   4 total cpu time :   115.4 secs   av.it.:   9.8
      thresh= 3.240E-06 alpha_mix =  0.700 |ddv_scf|^2 =  2.471E-12

      iter #   5 total cpu time :   116.7 secs   av.it.:  10.3
      thresh= 1.572E-07 alpha_mix =  0.700 |ddv_scf|^2 =  6.994E-14

     End of self-consistent calculation

     Convergence has been achieved 


     Representation #  6 mode #   6

     Self-consistent Calculation

      iter #   1 total cpu time :   117.8 secs   av.it.:   5.2
      thresh= 1.000E-02 alpha_mix =  0.700 |ddv_scf|^2 =  4.823E-07

      iter #   2 total cpu time :   119.1 secs   av.it.:  10.4
[...]
        k(   59) = (  -0.8750000   0.1250000  -0.1250000), wk =   0.0625000
        k(   60) = (  -1.3750000  -0.8750000  -0.1250000), wk =   0.0000000
        k(   61) = (  -1.1250000   0.3750000  -0.3750000), wk =   0.0625000
        k(   62) = (  -1.6250000  -0.6250000  -0.3750000), wk =   0.0000000
        k(   63) = (  -0.3750000   0.3750000   1.1250000), wk =   0.0625000
        k(   64) = (  -0.8750000  -0.6250000   1.1250000), wk =   0.0000000

     Dense  grid:    17453 G-vectors     FFT dimensions: (  40,  40,  40)

     Smooth grid:     6183 G-vectors     FFT dimensions: (  25,  25,  25)

     Estimated max dynamical RAM per process >       1.79MB

     Estimated total allocated dynamical RAM >       7.17MB

     The potential is recalculated from file :
     ./_ph0/silicon.10.354.save/charge-density.dat

     Starting wfc are    8 atomic wfcs

     Band Structure Calculation
     Davidson diagonalization with overlap

     ethr =  1.25E-10,  avg # of iterations = 12.1

     total cpu time spent up to now is       11.1 secs

     End of band structure calculation

          k =-0.1250 0.1250 0.1250 (   773 PWs)   bands (ev):

    -5.6595   4.3279   5.6374   5.6374

          k =-0.6250-0.8750 0.1250 (   762 PWs)   bands (ev):

    -2.4809  -0.9457   1.9738   3.0431

          k =-0.3750 0.3750-0.1250 (   776 PWs)   bands (ev):

    -4.6390   1.3461   3.6624   5.1589

          k =-0.8750-0.6250-0.1250 (   762 PWs)   bands (ev):

    -2.4809  -0.9457   1.9738   3.0431

          k = 0.3750-0.3750 0.6250 (   773 PWs)   bands (ev):

    -3.5081  -0.7181   3.6803   4.3927

          k =-0.1250-1.3750 0.6250 (   769 PWs)   bands (ev):

    -3.0152  -0.6400   2.0294   4.0780

          k = 0.1250-0.1250 0.3750 (   781 PWs)   bands (ev):

    -5.1347   2.7148   4.6362   4.6966

          k =-0.3750-1.1250 0.3750 (   769 PWs)   bands (ev):

    -3.0152  -0.6400   2.0294   4.0780

          k =-0.1250 0.6250 0.1250 (   775 PWs)   bands (ev):

    -4.1093   1.0066   3.3174   3.7672

          k =-0.6250-0.3750 0.1250 (   770 PWs)   bands (ev):

    -3.6970   0.1419   2.6783   4.0404

          k = 0.6250-0.1250 0.8750 (   762 PWs)   bands (ev):

    -2.4809  -0.9457   1.9738   3.0431

          k = 0.1250-1.1250 0.8750 (   763 PWs)   bands (ev):

    -2.6461  -0.8497   2.5793   3.3028

          k = 0.3750 0.1250 0.6250 (   770 PWs)   bands (ev):

    -3.6970   0.1419   2.6783   4.0404

          k =-0.1250-0.8750 0.6250 (   762 PWs)   bands (ev):

    -2.4809  -0.9457   1.9738   3.0431

          k =-0.1250-0.8750 0.1250 (   763 PWs)   bands (ev):

    -2.6461  -0.8497   2.5793   3.3028

          k =-0.6250-1.8750 0.1250 (   775 PWs)   bands (ev):

    -4.1093   1.0066   3.3174   3.7672

          k =-0.3750 0.3750 0.3750 (   769 PWs)   bands (ev):

    -4.2093   0.0658   4.8539   4.8539

          k =-0.8750-0.6250 0.3750 (   770 PWs)   bands (ev):

    -3.6970   0.1419   2.6783   4.0404

          k = 0.3750-0.3750 1.1250 (   769 PWs)   bands (ev):

    -3.0152  -0.6400   2.0294   4.0780

          k =-0.1250-1.3750 1.1250 (   762 PWs)   bands (ev):

    -2.4809  -0.9457   1.9738   3.0431

          k = 0.1250-0.3750 0.3750 (   776 PWs)   bands (ev):

    -4.6390   1.3461   3.6624   5.1589

          k =-0.3750-1.3750 0.3750 (   773 PWs)   bands (ev):

    -3.5081  -0.7181   3.6803   4.3927

          k = 0.3750-0.3750-0.1250 (   776 PWs)   bands (ev):

    -4.6390   1.3461   3.6624   5.1589

          k =-0.1250-1.3750-0.1250 (   775 PWs)   bands (ev):

    -4.1093   1.0066   3.3174   3.7672

          k =-0.6250 0.3750-0.3750 (   773 PWs)   bands (ev):

    -3.5081  -0.7181   3.6803   4.3927

          k =-1.1250-0.6250-0.3750 (   770 PWs)   bands (ev):

    -3.6970   0.1419   2.6783   4.0404

          k =-0.3750 0.3750 0.6250 (   773 PWs)   bands (ev):

    -3.5081  -0.7181   3.6803   4.3927

          k =-0.8750-0.6250 0.6250 (   776 PWs)   bands (ev):

    -4.6390   1.3461   3.6624   5.1589

          k =-0.3750 0.1250-0.1250 (   781 PWs)   bands (ev):

    -5.1347   2.7148   4.6362   4.6966

          k =-0.8750-0.8750-0.1250 (   763 PWs)   bands (ev):

    -2.6461  -0.8497   2.5793   3.3028

          k =-0.1250 0.1250 0.3750 (   781 PWs)   bands (ev):

    -5.1347   2.7148   4.6362   4.6966

          k =-0.6250-0.8750 0.3750 (   770 PWs)   bands (ev):

    -3.6970   0.1419   2.6783   4.0404

          k = 0.1250 0.6250-0.1250 (   775 PWs)   bands (ev):

    -4.1093   1.0066   3.3174   3.7672

          k =-0.3750-0.3750-0.1250 (   776 PWs)   bands (ev):

    -4.6390   1.3461   3.6624   5.1589

          k = 0.6250 0.1250-0.1250 (   775 PWs)   bands (ev):

    -4.1093   1.0066   3.3174   3.7672

          k = 0.1250-0.8750-0.1250 (   763 PWs)   bands (ev):

    -2.6461  -0.8497   2.5793   3.3028

          k =-0.8750 0.1250-0.6250 (   762 PWs)   bands (ev):

    -2.4809  -0.9457   1.9738   3.0431

          k =-1.3750-0.8750-0.6250 (   776 PWs)   bands (ev):

    -4.6390   1.3461   3.6624   5.1589

          k = 0.8750-0.1250 0.6250 (   762 PWs)   bands (ev):

    -2.4809  -0.9457   1.9738   3.0431

          k = 0.3750-1.1250 0.6250 (   770 PWs)   bands (ev):

    -3.6970   0.1419   2.6783   4.0404

          k =-0.6250 0.1250 0.8750 (   762 PWs)   bands (ev):

    -2.4809  -0.9457   1.9738   3.0431

          k =-1.1250-0.8750 0.8750 (   773 PWs)   bands (ev):

    -5.6595   4.3279   5.6374   5.6374

          k =-0.1250 0.8750 0.6250 (   762 PWs)   bands (ev):

    -2.4809  -0.9457   1.9738   3.0431

          k =-0.6250-0.1250 0.6250 (   769 PWs)   bands (ev):

    -3.0152  -0.6400   2.0294   4.0780

          k = 0.1250 0.8750-0.6250 (   762 PWs)   bands (ev):

    -2.4809  -0.9457   1.9738   3.0431

          k =-0.3750-0.1250-0.6250 (   770 PWs)   bands (ev):

    -3.6970   0.1419   2.6783   4.0404

          k =-0.6250-0.1250-0.3750 (   770 PWs)   bands (ev):

    -3.6970   0.1419   2.6783   4.0404

          k =-1.1250-1.1250-0.3750 (   775 PWs)   bands (ev):

    -4.1093   1.0066   3.3174   3.7672

          k = 0.6250 0.1250 0.3750 (   770 PWs)   bands (ev):

    -3.6970   0.1419   2.6783   4.0404

          k = 0.1250-0.8750 0.3750 (   762 PWs)   bands (ev):

    -2.4809  -0.9457   1.9738   3.0431

          k =-0.3750-0.1250 0.6250 (   770 PWs)   bands (ev):

    -3.6970   0.1419   2.6783   4.0404

          k =-0.8750-1.1250 0.6250 (   781 PWs)   bands (ev):

    -5.1347   2.7148   4.6362   4.6966

          k = 0.1250 0.6250 0.3750 (   770 PWs)   bands (ev):

    -3.6970   0.1419   2.6783   4.0404

          k =-0.3750-0.3750 0.3750 (   769 PWs)   bands (ev):

    -4.2093   0.0658   4.8539   4.8539

          k =-0.1250 0.6250-0.3750 (   770 PWs)   bands (ev):

    -3.6970   0.1419   2.6783   4.0404

          k =-0.6250-0.3750-0.3750 (   773 PWs)   bands (ev):

    -3.5081  -0.7181   3.6803   4.3927

          k = 0.1250-0.8750-0.1250 (   763 PWs)   bands (ev):

    -2.6461  -0.8497   2.5793   3.3028

          k =-0.3750-1.8750-0.1250 (   781 PWs)   bands (ev):

    -5.1347   2.7148   4.6362   4.6966

          k =-0.8750 0.1250-0.1250 (   763 PWs)   bands (ev):

    -2.6461  -0.8497   2.5793   3.3028

          k =-1.3750-0.8750-0.1250 (   762 PWs)   bands (ev):

    -2.4809  -0.9457   1.9738   3.0431

          k =-1.1250 0.3750-0.3750 (   769 PWs)   bands (ev):

    -3.0152  -0.6400   2.0294   4.0780

          k =-1.6250-0.6250-0.3750 (   773 PWs)   bands (ev):

    -3.5081  -0.7181   3.6803   4.3927

          k =-0.3750 0.3750 1.1250 (   769 PWs)   bands (ev):

    -3.0152  -0.6400   2.0294   4.0780

          k =-0.8750-0.6250 1.1250 (   781 PWs)   bands (ev):

    -5.1347   2.7148   4.6362   4.6966

     highest occupied level (ev):     5.6374

     Writing output data file silicon.10.354.save

                                                                                

     bravais-lattice index     =            2
     lattice parameter (alat)  =      10.3540  a.u.
     unit-cell volume          =     277.5010 (a.u.)^3
     number of atoms/cell      =            2
     number of atomic types    =            1
     kinetic-energy cut-off    =      30.0000  Ry
     charge density cut-off    =     240.0000  Ry
     convergence threshold     =      1.0E-12
     beta                      =       0.7000
     number of iterations used =            4
     Exchange-correlation      = SLA  PW   PBE  PBE ( 1  4  3  4 0 0)


     celldm(1)=   10.35400  celldm(2)=    0.00000  celldm(3)=    0.00000
     celldm(4)=    0.00000  celldm(5)=    0.00000  celldm(6)=    0.00000

     crystal axes: (cart. coord. in units of alat)
               a(1) = ( -0.5000  0.0000  0.5000 )  
               a(2) = (  0.0000  0.5000  0.5000 )  
               a(3) = ( -0.5000  0.5000  0.0000 )  

     reciprocal axes: (cart. coord. in units 2 pi/alat)
               b(1) = ( -1.0000 -1.0000  1.0000 )  
               b(2) = (  1.0000  1.0000  1.0000 )  
               b(3) = ( -1.0000  1.0000 -1.0000 )  


     Atoms inside the unit cell: 

     Cartesian axes

     site n.  atom      mass           positions (alat units)
        1     Si  28.0860   tau(    1) = (    0.00000    0.00000    0.00000  )
        2     Si  28.0860   tau(    2) = (    0.25000    0.25000    0.25000  )

     Computing dynamical matrix for 
                    q = (  -0.5000000  -1.0000000   0.0000000 )

      8 Sym.Ops. (no q -> -q+G )


     G cutoff =  651.7302  (   4363 G-vectors)     FFT grid: ( 40, 40, 40)
     G cutoff =  325.8651  (   1546 G-vectors)  smooth grid: ( 25, 25, 25)
     number of k points=    64

     PseudoPot. # 1 for Si read from file:
     /home/s1333534/quantum_espresso/qe-6.1/pseudo/si_pbe_v1.uspp.F.UPF.txt
     MD5 check sum: a056efeee980c13900f22a371efd63c1
     Pseudo is Ultrasoft + core correction, Zval =  4.0
     Generated by new atomic code, or converted to UPF format
     Using radial grid of  899 points,  6 beta functions with: 
                l(1) =   0
                l(2) =   0
                l(3) =   1
                l(4) =   1
                l(5) =   2
                l(6) =   2
     Q(r) pseudized with  8 coefficients,  rinner =    0.900   0.900   0.900
                                                       0.900   0.900


     Atomic displacements:
     There are   3 irreducible representations

     Representation     1      2 modes -  To be done

     Representation     2      2 modes -  To be done

     Representation     3      2 modes -  To be done



     Alpha used in Ewald sum =   2.5000
     PHONON       :  2m 8.59s CPU     2m42.77s WALL



     Representation #  1 modes #   1  2

     Self-consistent Calculation

      iter #   1 total cpu time :   163.6 secs   av.it.:   5.7
      thresh= 1.000E-02 alpha_mix =  0.700 |ddv_scf|^2 =  7.835E-07

      iter #   2 total cpu time :   164.5 secs   av.it.:  11.8
      thresh= 8.852E-05 alpha_mix =  0.700 |ddv_scf|^2 =  4.430E-07

      iter #   3 total cpu time :   165.3 secs   av.it.:  11.2
      thresh= 6.656E-05 alpha_mix =  0.700 |ddv_scf|^2 =  4.277E-10

      iter #   4 total cpu time :   166.2 secs   av.it.:  11.1
      thresh= 2.068E-06 alpha_mix =  0.700 |ddv_scf|^2 =  1.932E-12

      iter #   5 total cpu time :   166.9 secs   av.it.:  11.3
      thresh= 1.390E-07 alpha_mix =  0.700 |ddv_scf|^2 =  5.071E-14

     End of self-consistent calculation

     Convergence has been achieved 


     Representation #  2 modes #   3  4

     Self-consistent Calculation

      iter #   1 total cpu time :   167.8 secs   av.it.:   5.6
      thresh= 1.000E-02 alpha_mix =  0.700 |ddv_scf|^2 =  1.219E-06

      iter #   2 total cpu time :   168.7 secs   av.it.:  11.8
      thresh= 1.104E-04 alpha_mix =  0.700 |ddv_scf|^2 =  1.663E-06

      iter #   3 total cpu time :   169.5 secs   av.it.:  11.0
      thresh= 1.290E-04 alpha_mix =  0.700 |ddv_scf|^2 =  5.103E-10

      iter #   4 total cpu time :   170.4 secs   av.it.:  11.1
      thresh= 2.259E-06 alpha_mix =  0.700 |ddv_scf|^2 =  8.225E-12

      iter #   5 total cpu time :   171.2 secs   av.it.:  11.3
      thresh= 2.868E-07 alpha_mix =  0.700 |ddv_scf|^2 =  1.330E-13

     End of self-consistent calculation

     Convergence has been achieved 


     Representation #  3 modes #   5  6

     Self-consistent Calculation

      iter #   1 total cpu time :   171.9 secs   av.it.:   5.3
      thresh= 1.000E-02 alpha_mix =  0.700 |ddv_scf|^2 =  3.185E-07

      iter #   2 total cpu time :   172.7 secs   av.it.:  11.8
      thresh= 5.644E-05 alpha_mix =  0.700 |ddv_scf|^2 =  1.859E-07

      iter #   3 total cpu time :   173.6 secs   av.it.:  11.2
      thresh= 4.312E-05 alpha_mix =  0.700 |ddv_scf|^2 =  3.706E-10

      iter #   4 total cpu time :   174.4 secs   av.it.:  11.1
      thresh= 1.925E-06 alpha_mix =  0.700 |ddv_scf|^2 =  4.456E-12

      iter #   5 total cpu time :   175.2 secs   av.it.:  11.2
      thresh= 2.111E-07 alpha_mix =  0.700 |ddv_scf|^2 =  6.057E-14

     End of self-consistent calculation

     Convergence has been achieved 

     Number of q in the star =    6
     List of q in the star:
          1  -0.500000000  -1.000000000   0.000000000
          2   0.000000000   1.000000000   0.500000000
          3   0.000000000  -1.000000000  -0.500000000
          4   0.500000000   1.000000000   0.000000000
          5  -1.000000000  -0.500000000   0.000000000
          6   0.000000000  -0.500000000  -1.000000000

     Diagonalizing the dynamical matrix

     q = (   -0.500000000  -1.000000000   0.000000000 ) 

 **************************************************************************
     freq (    1) =       6.034864 [THz] =     201.301412 [cm-1]
     freq (    2) =       6.034864 [THz] =     201.301412 [cm-1]
     freq (    3) =      10.252396 [THz] =     341.983121 [cm-1]
     freq (    4) =      10.252396 [THz] =     341.983121 [cm-1]
     freq (    5) =      13.436390 [THz] =     448.189731 [cm-1]
     freq (    6) =      13.436390 [THz] =     448.189731 [cm-1]
 **************************************************************************

     init_run     :      1.27s CPU      1.32s WALL (       7 calls)
     electrons    :      7.39s CPU      7.96s WALL (       7 calls)

     Called by init_run:
     wfcinit      :      0.00s CPU      0.02s WALL (       7 calls)
     potinit      :      0.10s CPU      0.12s WALL (       7 calls)

     Called by electrons:
     c_bands      :      7.39s CPU      7.96s WALL (       7 calls)
     v_of_rho     :      0.09s CPU      0.09s WALL (       8 calls)
     newd         :      0.12s CPU      0.12s WALL (       8 calls)

     Called by c_bands:
     init_us_2    :      1.64s CPU      1.58s WALL (   15896 calls)
     cegterg      :      6.20s CPU      6.66s WALL (     796 calls)

     Called by sum_band:

     Called by *egterg:
     h_psi        :     71.20s CPU     76.35s WALL (  154705 calls)
     s_psi        :      5.80s CPU      7.04s WALL (  311668 calls)
     g_psi        :      0.05s CPU      0.07s WALL (    9666 calls)
     cdiaghg      :      0.57s CPU      0.56s WALL (   10462 calls)

     Called by h_psi:
     h_psi:pot    :     70.76s CPU     75.84s WALL (  154705 calls)
     h_psi:calbec :      3.49s CPU      4.04s WALL (  154705 calls)
     vloc_psi     :     62.64s CPU     67.64s WALL (  154705 calls)
     add_vuspsi   :      4.29s CPU      3.69s WALL (  154705 calls)

     General routines
     calbec       :      8.13s CPU      8.57s WALL (  345976 calls)
     fft          :      2.15s CPU      2.22s WALL (    5233 calls)
     ffts         :      0.21s CPU      0.22s WALL (    3316 calls)
     fftw         :     64.33s CPU     68.35s WALL ( 1384844 calls)
     interpolate  :      0.27s CPU      0.29s WALL (     568 calls)
     davcio       :      0.33s CPU      1.16s WALL (   69130 calls)

     Parallel routines
     fft_scatter  :     15.68s CPU     20.30s WALL ( 1393393 calls)

     PHONON       :  2m18.42s CPU     2m55.73s WALL

     INITIALIZATION: 
     phq_setup    :      0.31s CPU      0.47s WALL (       8 calls)
     phq_init     :      6.86s CPU      7.16s WALL (       8 calls)

     phq_init     :      6.86s CPU      7.16s WALL (       8 calls)
     set_drhoc    :      1.85s CPU      1.86s WALL (      24 calls)
     init_vloc    :      0.03s CPU      0.03s WALL (       8 calls)
     init_us_1    :      0.98s CPU      0.98s WALL (       8 calls)
     newd         :      0.12s CPU      0.12s WALL (       8 calls)
     dvanqq       :      1.19s CPU      1.20s WALL (       8 calls)
     drho         :      2.64s CPU      2.72s WALL (       8 calls)

     DYNAMICAL MATRIX:
     dynmat0      :      1.74s CPU      1.86s WALL (       8 calls)
     phqscf       :    117.10s CPU    148.22s WALL (       8 calls)
     dynmatrix    :      0.02s CPU      0.20s WALL (       8 calls)

     phqscf       :    117.10s CPU    148.22s WALL (       8 calls)
     solve_linter :    116.22s CPU    145.59s WALL (      32 calls)
     drhodv       :      0.59s CPU      0.60s WALL (      32 calls)

     dynmat0      :      1.74s CPU      1.86s WALL (       8 calls)
     dynmat_us    :      0.38s CPU      0.39s WALL (       8 calls)
     d2ionq       :      0.04s CPU      0.04s WALL (       8 calls)
     dynmatcc     :      1.31s CPU      1.32s WALL (       8 calls)

     dynmat_us    :      0.38s CPU      0.39s WALL (       8 calls)
     addusdynmat  :      0.00s CPU      0.00s WALL (       8 calls)

     phqscf       :    117.10s CPU    148.22s WALL (       8 calls)
     solve_linter :    116.22s CPU    145.59s WALL (      32 calls)

     solve_linter :    116.22s CPU    145.59s WALL (      32 calls)
     dvqpsi_us    :      2.12s CPU      2.27s WALL (    2508 calls)
     ortho        :      1.02s CPU      1.14s WALL (   13486 calls)
     cgsolve      :     78.77s CPU     85.69s WALL (   13486 calls)
     incdrhoscf   :      6.25s CPU      6.80s WALL (   13486 calls)
     addusddens   :      7.15s CPU      7.22s WALL (     200 calls)
     vpsifft      :      4.46s CPU      4.86s WALL (   10858 calls)
     dv_of_drho   :      1.78s CPU      1.82s WALL (     254 calls)
     mix_pot      :      0.37s CPU     11.64s WALL (     173 calls)
     psymdvscf    :      5.73s CPU      5.79s WALL (     168 calls)
     newdq        :      7.80s CPU      7.83s WALL (     173 calls)
     adddvscf     :      0.45s CPU      0.43s WALL (   10978 calls)
     drhodvus     :      0.01s CPU      0.02s WALL (      32 calls)

     dvqpsi_us    :      2.12s CPU      2.27s WALL (    2508 calls)
     dvqpsi_us_on :      0.90s CPU      0.94s WALL (    2508 calls)

     cgsolve      :     78.77s CPU     85.69s WALL (   13486 calls)
     ch_psi       :     77.62s CPU     83.88s WALL (  143447 calls)

     ch_psi       :     77.62s CPU     83.88s WALL (  143447 calls)
     h_psi        :     71.20s CPU     76.35s WALL (  154705 calls)
     last         :      9.10s CPU      9.27s WALL (  143447 calls)

     h_psi        :     71.20s CPU     76.35s WALL (  154705 calls)
     add_vuspsi   :      4.29s CPU      3.69s WALL (  154705 calls)

     incdrhoscf   :      6.25s CPU      6.80s WALL (   13486 calls)
     addusdbec    :      0.47s CPU      0.52s WALL (   15934 calls)

     drhodvus     :      0.01s CPU      0.02s WALL (      32 calls)

      General routines
     calbec       :      8.13s CPU      8.57s WALL (  345976 calls)
     fft          :      2.15s CPU      2.22s WALL (    5233 calls)
     ffts         :      0.21s CPU      0.22s WALL (    3316 calls)
     fftw         :     64.33s CPU     68.35s WALL ( 1384844 calls)
     davcio       :      0.33s CPU      1.16s WALL (   69130 calls)
     write_rec    :      0.23s CPU     11.73s WALL (     205 calls)


     PHONON       :  2m18.42s CPU     2m55.73s WALL


   This run was terminated on:  15:51:39  10Nov2017            

=------------------------------------------------------------------------------=
   JOB DONE.
=------------------------------------------------------------------------------=
