
     Program PWSCF v.6.1 (svn rev. 13369) starts on 10Nov2017 at 10:31:47 

     This program is part of the open-source Quantum ESPRESSO suite
     for quantum simulation of materials; please cite
         "P. Giannozzi et al., J. Phys.:Condens. Matter 21 395502 (2009);
          URL http://www.quantum-espresso.org", 
     in publications or presentations arising from this work. More details at
     http://www.quantum-espresso.org/quote

     Parallel version (MPI), running on     4 processors
     R & G space division:  proc/nbgrp/npool/nimage =       4
     Waiting for input...
     Reading input from standard input
     Message from routine read_cards :
     DEPRECATED: no units specified in ATOMIC_POSITIONS card
     Message from routine read_cards :
     ATOMIC_POSITIONS: units set to alat

     Current dimensions of program PWSCF are:
     Max number of different atomic species (ntypx) = 10
     Max number of k-points (npk) =  40000
     Max angular momentum in pseudopotentials (lmaxx) =  3

     Subspace diagonalization in iterative solution of the eigenvalue problem:
     a serial algorithm will be used


     Parallelization info
     --------------------
     sticks:   dense  smooth     PW     G-vecs:    dense   smooth      PW
     Min         218     109     37                 4315     1545     309
     Max         220     110     38                 4316     1546     312
     Sum         877     439    151                17261     6183    1243



     bravais-lattice index     =            2
     lattice parameter (alat)  =      10.3460  a.u.
     unit-cell volume          =     276.8582 (a.u.)^3
     number of atoms/cell      =            2
     number of atomic types    =            1
     number of electrons       =         8.00
     number of Kohn-Sham states=            4
     kinetic-energy cutoff     =      30.0000  Ry
     charge density cutoff     =     240.0000  Ry
     convergence threshold     =      1.0E-08
     mixing beta               =       0.7000
     number of iterations used =            8  plain     mixing
     Exchange-correlation      = SLA  PW   PBE  PBE ( 1  4  3  4 0 0)

     celldm(1)=  10.346000  celldm(2)=   0.000000  celldm(3)=   0.000000
     celldm(4)=   0.000000  celldm(5)=   0.000000  celldm(6)=   0.000000

     crystal axes: (cart. coord. in units of alat)
               a(1) = (  -0.500000   0.000000   0.500000 )  
               a(2) = (   0.000000   0.500000   0.500000 )  
               a(3) = (  -0.500000   0.500000   0.000000 )  

     reciprocal axes: (cart. coord. in units 2 pi/alat)
               b(1) = ( -1.000000 -1.000000  1.000000 )  
               b(2) = (  1.000000  1.000000  1.000000 )  
               b(3) = ( -1.000000  1.000000 -1.000000 )  


     PseudoPot. # 1 for Si read from file:
     /home/max/quantum_espresso/qe-6.1/pseudo/si_pbe_v1.uspp.F.UPF.txt
     MD5 check sum: a056efeee980c13900f22a371efd63c1
     Pseudo is Ultrasoft + core correction, Zval =  4.0
     Generated by new atomic code, or converted to UPF format
     Using radial grid of  899 points,  6 beta functions with: 
                l(1) =   0
                l(2) =   0
                l(3) =   1
                l(4) =   1
                l(5) =   2
                l(6) =   2
     Q(r) pseudized with  8 coefficients,  rinner =    0.900   0.900   0.900
                                                       0.900   0.900

     atomic species   valence    mass     pseudopotential
        Si             4.00    28.08600     Si( 1.00)

     48 Sym. Ops., with inversion, found (24 have fractional translation)



   Cartesian axes

     site n.     atom                  positions (alat units)
         1           Si  tau(   1) = (   0.0000000   0.0000000   0.0000000  )
         2           Si  tau(   2) = (   0.2500000   0.2500000   0.2500000  )

     number of k points=    28
                       cart. coord. in units 2pi/alat
        k(    1) = (  -0.0833333   0.0833333   0.0833333), wk =   0.0185185
        k(    2) = (  -0.2500000   0.2500000  -0.0833333), wk =   0.0555556
        k(    3) = (  -0.4166667   0.4166667  -0.2500000), wk =   0.0555556
        k(    4) = (   0.4166667  -0.4166667   0.5833333), wk =   0.0555556
        k(    5) = (   0.2500000  -0.2500000   0.4166667), wk =   0.0555556
        k(    6) = (   0.0833333  -0.0833333   0.2500000), wk =   0.0555556
        k(    7) = (  -0.0833333   0.4166667   0.0833333), wk =   0.0555556
        k(    8) = (  -0.2500000   0.5833333  -0.0833333), wk =   0.1111111
        k(    9) = (   0.5833333  -0.2500000   0.7500000), wk =   0.1111111
        k(   10) = (   0.4166667  -0.0833333   0.5833333), wk =   0.1111111
        k(   11) = (   0.2500000   0.0833333   0.4166667), wk =   0.1111111
        k(   12) = (  -0.0833333   0.7500000   0.0833333), wk =   0.0555556
        k(   13) = (   0.7500000  -0.0833333   0.9166667), wk =   0.1111111
        k(   14) = (   0.5833333   0.0833333   0.7500000), wk =   0.1111111
        k(   15) = (   0.4166667   0.2500000   0.5833333), wk =   0.1111111
        k(   16) = (  -0.0833333  -0.9166667   0.0833333), wk =   0.0555556
        k(   17) = (  -0.2500000  -0.7500000  -0.0833333), wk =   0.1111111
        k(   18) = (  -0.0833333  -0.5833333   0.0833333), wk =   0.0555556
        k(   19) = (  -0.2500000   0.2500000   0.2500000), wk =   0.0185185
        k(   20) = (  -0.4166667   0.4166667   0.0833333), wk =   0.0555556
        k(   21) = (   0.4166667  -0.4166667   0.9166667), wk =   0.0555556
        k(   22) = (   0.2500000  -0.2500000   0.7500000), wk =   0.0555556
        k(   23) = (  -0.2500000   0.5833333   0.2500000), wk =   0.0555556
        k(   24) = (   0.5833333  -0.2500000   1.0833333), wk =   0.1111111
        k(   25) = (   0.4166667  -0.0833333   0.9166667), wk =   0.1111111
        k(   26) = (  -0.2500000  -1.0833333   0.2500000), wk =   0.0555556
        k(   27) = (  -0.4166667   0.4166667   0.4166667), wk =   0.0185185
        k(   28) = (   0.4166667  -0.4166667   1.2500000), wk =   0.0555556

     Dense  grid:    17261 G-vectors     FFT dimensions: (  40,  40,  40)

     Smooth grid:     6183 G-vectors     FFT dimensions: (  25,  25,  25)

     Estimated max dynamical RAM per process >       3.35MB

     Estimated total allocated dynamical RAM >      13.42MB

     Initial potential from superposition of free atoms

     starting charge    7.99866, renormalised to    8.00000
     Starting wfc are    8 randomized atomic wfcs

     total cpu time spent up to now is        0.5 secs

     per-process dynamical memory:     9.8 Mb

     Self-consistent Calculation

     iteration #  1     ecut=    30.00 Ry     beta=0.70
     Davidson diagonalization with overlap
     ethr =  1.00E-02,  avg # of iterations =  2.0

     Threshold (ethr) on eigenvalues was too large:
     Diagonalizing with lowered threshold

     Davidson diagonalization with overlap
     ethr =  6.72E-04,  avg # of iterations =  1.0

     total cpu time spent up to now is        1.3 secs

     total energy              =     -19.19123524 Ry
     Harris-Foulkes estimate   =     -19.20354426 Ry
     estimated scf accuracy    <       0.05335226 Ry

     iteration #  2     ecut=    30.00 Ry     beta=0.70
     Davidson diagonalization with overlap
     ethr =  6.67E-04,  avg # of iterations =  1.0

     total cpu time spent up to now is        1.6 secs

     total energy              =     -19.19298241 Ry
     Harris-Foulkes estimate   =     -19.19315057 Ry
     estimated scf accuracy    <       0.00244680 Ry

     iteration #  3     ecut=    30.00 Ry     beta=0.70
     Davidson diagonalization with overlap
     ethr =  3.06E-05,  avg # of iterations =  2.1

     total cpu time spent up to now is        1.9 secs

     total energy              =     -19.19331961 Ry
     Harris-Foulkes estimate   =     -19.19333193 Ry
     estimated scf accuracy    <       0.00004084 Ry

     iteration #  4     ecut=    30.00 Ry     beta=0.70
     Davidson diagonalization with overlap
     ethr =  5.11E-07,  avg # of iterations =  3.3

     total cpu time spent up to now is        2.2 secs

     total energy              =     -19.19335736 Ry
     Harris-Foulkes estimate   =     -19.19335807 Ry
     estimated scf accuracy    <       0.00000277 Ry

     iteration #  5     ecut=    30.00 Ry     beta=0.70
     Davidson diagonalization with overlap
     ethr =  3.46E-08,  avg # of iterations =  2.0

     total cpu time spent up to now is        2.4 secs

     End of self-consistent calculation

          k =-0.0833 0.0833 0.0833 (   752 PWs)   bands (ev):

    -5.7625   5.0827   5.8015   5.8015

          k =-0.2500 0.2500-0.0833 (   774 PWs)   bands (ev):

    -5.2945   3.0195   4.5890   5.5924

          k =-0.4167 0.4167-0.2500 (   769 PWs)   bands (ev):

    -4.2242   0.3035   4.1264   4.9660

          k = 0.4167-0.4167 0.5833 (   771 PWs)   bands (ev):

    -3.5444  -0.8155   4.1883   4.5931

          k = 0.2500-0.2500 0.4167 (   774 PWs)   bands (ev):

    -4.6271   1.1349   4.6545   4.6791

          k = 0.0833-0.0833 0.2500 (   781 PWs)   bands (ev):

    -5.5261   4.0171   5.1693   5.3453

          k =-0.0833 0.4167 0.0833 (   775 PWs)   bands (ev):

    -5.0575   2.8203   4.4325   4.4525

          k =-0.2500 0.5833-0.0833 (   773 PWs)   bands (ev):

    -4.1644   1.0055   3.1419   4.0712

          k = 0.5833-0.2500 0.7500 (   765 PWs)   bands (ev):

    -3.0749  -0.7047   2.5451   3.8499

          k = 0.4167-0.0833 0.5833 (   769 PWs)   bands (ev):

    -3.7787   0.3275   2.5110   4.3252

          k = 0.2500 0.0833 0.4167 (   775 PWs)   bands (ev):

    -4.8365   2.0030   3.8256   4.9776

          k =-0.0833 0.7500 0.0833 (   773 PWs)   bands (ev):

    -3.4651   0.1808   3.1098   3.4405

          k = 0.7500-0.0833 0.9167 (   760 PWs)   bands (ev):

    -2.2934  -1.1378   2.2885   3.0447

          k = 0.5833 0.0833 0.7500 (   763 PWs)   bands (ev):

    -2.6622  -0.7991   1.8130   3.5793

          k = 0.4167 0.2500 0.5833 (   772 PWs)   bands (ev):

    -3.6711  -0.3307   3.4253   4.4201

          k =-0.0833-0.9167 0.0833 (   765 PWs)   bands (ev):

    -2.3811  -1.1447   2.8455   3.2285

          k =-0.2500-0.7500-0.0833 (   767 PWs)   bands (ev):

    -3.3010  -0.0371   2.6002   3.3791

          k =-0.0833-0.5833 0.0833 (   771 PWs)   bands (ev):

    -4.3654   1.5284   3.6427   3.8561

          k =-0.2500 0.2500 0.2500 (   778 PWs)   bands (ev):

    -5.0693   2.0595   5.1976   5.1976

          k =-0.4167 0.4167 0.0833 (   775 PWs)   bands (ev):

    -4.4032   1.1278   3.1060   5.0296

          k = 0.4167-0.4167 0.9167 (   769 PWs)   bands (ev):

    -3.2494  -0.2970   2.0230   4.2593

          k = 0.2500-0.2500 0.7500 (   768 PWs)   bands (ev):

    -3.1971  -0.3754   2.4893   3.7870

          k =-0.2500 0.5833 0.2500 (   775 PWs)   bands (ev):

    -3.9878   0.3364   3.5530   4.1535

          k = 0.5833-0.2500 1.0833 (   763 PWs)   bands (ev):

    -3.0062  -0.4157   2.1224   3.3789

          k = 0.4167-0.0833 0.9167 (   757 PWs)   bands (ev):

    -2.1919  -1.1455   1.9669   2.7264

          k =-0.2500-1.0833 0.2500 (   762 PWs)   bands (ev):

    -2.3992  -1.0477   1.8429   3.5958

          k =-0.4167 0.4167 0.4167 (   769 PWs)   bands (ev):

    -3.9037  -0.4231   4.8136   4.8136

          k = 0.4167-0.4167 1.2500 (   768 PWs)   bands (ev):

    -3.3126  -0.7259   3.0085   4.3832

     highest occupied level (ev):     5.8015

!    total energy              =     -19.19335775 Ry
     Harris-Foulkes estimate   =     -19.19335774 Ry
     estimated scf accuracy    <          9.7E-09 Ry

     The total energy is the sum of the following terms:

     one-electron contribution =       4.92325893 Ry
     hartree contribution      =       1.13705728 Ry
     xc contribution           =      -8.59240028 Ry
     ewald contribution        =     -16.66127368 Ry

     convergence has been achieved in   5 iterations

     Writing output data file silicon.10.346.save

     init_run     :      0.37s CPU      0.40s WALL (       1 calls)
     electrons    :      1.26s CPU      1.92s WALL (       1 calls)

     Called by init_run:
     wfcinit      :      0.09s CPU      0.09s WALL (       1 calls)
     potinit      :      0.03s CPU      0.03s WALL (       1 calls)

     Called by electrons:
     c_bands      :      0.74s CPU      1.14s WALL (       6 calls)
     sum_band     :      0.31s CPU      0.44s WALL (       6 calls)
     v_of_rho     :      0.11s CPU      0.16s WALL (       6 calls)
     newd         :      0.13s CPU      0.18s WALL (       6 calls)
     mix_rho      :      0.01s CPU      0.01s WALL (       6 calls)

     Called by c_bands:
     init_us_2    :      0.05s CPU      0.07s WALL (     364 calls)
     cegterg      :      0.63s CPU      0.98s WALL (     168 calls)

     Called by sum_band:
     sum_band:bec :      0.00s CPU      0.00s WALL (     168 calls)
     addusdens    :      0.14s CPU      0.18s WALL (       6 calls)

     Called by *egterg:
     h_psi        :      0.56s CPU      0.85s WALL (     519 calls)
     s_psi        :      0.04s CPU      0.05s WALL (     519 calls)
     g_psi        :      0.00s CPU      0.00s WALL (     323 calls)
     cdiaghg      :      0.04s CPU      0.05s WALL (     463 calls)

     Called by h_psi:
     h_psi:pot    :      0.56s CPU      0.85s WALL (     519 calls)
     h_psi:calbec :      0.06s CPU      0.09s WALL (     519 calls)
     vloc_psi     :      0.46s CPU      0.70s WALL (     519 calls)
     add_vuspsi   :      0.04s CPU      0.05s WALL (     519 calls)

     General routines
     calbec       :      0.08s CPU      0.12s WALL (     687 calls)
     fft          :      0.08s CPU      0.14s WALL (      96 calls)
     ffts         :      0.00s CPU      0.01s WALL (      12 calls)
     fftw         :      0.46s CPU      0.75s WALL (    4618 calls)
     interpolate  :      0.01s CPU      0.02s WALL (      12 calls)
     davcio       :      0.00s CPU      0.00s WALL (      28 calls)

     Parallel routines
     fft_scatter  :      0.25s CPU      0.55s WALL (    4726 calls)

     PWSCF        :     1.84s CPU         2.56s WALL


   This run was terminated on:  10:31:49  10Nov2017            

=------------------------------------------------------------------------------=
   JOB DONE.
=------------------------------------------------------------------------------=
