
     Program PWSCF v.6.1 (svn rev. 13369) starts on 10Nov2017 at 10:14:41 

     This program is part of the open-source Quantum ESPRESSO suite
     for quantum simulation of materials; please cite
         "P. Giannozzi et al., J. Phys.:Condens. Matter 21 395502 (2009);
          URL http://www.quantum-espresso.org", 
     in publications or presentations arising from this work. More details at
     http://www.quantum-espresso.org/quote

     Parallel version (MPI), running on     4 processors
     R & G space division:  proc/nbgrp/npool/nimage =       4
     Waiting for input...
     Reading input from standard input
     Message from routine read_cards :
     DEPRECATED: no units specified in ATOMIC_POSITIONS card
     Message from routine read_cards :
     ATOMIC_POSITIONS: units set to alat

     Current dimensions of program PWSCF are:
     Max number of different atomic species (ntypx) = 10
     Max number of k-points (npk) =  40000
     Max angular momentum in pseudopotentials (lmaxx) =  3

     Subspace diagonalization in iterative solution of the eigenvalue problem:
     a serial algorithm will be used


     Parallelization info
     --------------------
     sticks:   dense  smooth     PW     G-vecs:    dense   smooth      PW
     Min         219     109     37                 4315     1545     301
     Max         220     110     38                 4316     1546     304
     Sum         877     439    151                17261     6183    1211



     bravais-lattice index     =            2
     lattice parameter (alat)  =      10.3300  a.u.
     unit-cell volume          =     275.5757 (a.u.)^3
     number of atoms/cell      =            2
     number of atomic types    =            1
     number of electrons       =         8.00
     number of Kohn-Sham states=            4
     kinetic-energy cutoff     =      30.0000  Ry
     charge density cutoff     =     240.0000  Ry
     convergence threshold     =      1.0E-08
     mixing beta               =       0.7000
     number of iterations used =            8  plain     mixing
     Exchange-correlation      = SLA  PW   PBE  PBE ( 1  4  3  4 0 0)

     celldm(1)=  10.330000  celldm(2)=   0.000000  celldm(3)=   0.000000
     celldm(4)=   0.000000  celldm(5)=   0.000000  celldm(6)=   0.000000

     crystal axes: (cart. coord. in units of alat)
               a(1) = (  -0.500000   0.000000   0.500000 )  
               a(2) = (   0.000000   0.500000   0.500000 )  
               a(3) = (  -0.500000   0.500000   0.000000 )  

     reciprocal axes: (cart. coord. in units 2 pi/alat)
               b(1) = ( -1.000000 -1.000000  1.000000 )  
               b(2) = (  1.000000  1.000000  1.000000 )  
               b(3) = ( -1.000000  1.000000 -1.000000 )  


     PseudoPot. # 1 for Si read from file:
     /home/max/quantum_espresso/qe-6.1/pseudo/si_pbe_v1.uspp.F.UPF.txt
     MD5 check sum: a056efeee980c13900f22a371efd63c1
     Pseudo is Ultrasoft + core correction, Zval =  4.0
     Generated by new atomic code, or converted to UPF format
     Using radial grid of  899 points,  6 beta functions with: 
                l(1) =   0
                l(2) =   0
                l(3) =   1
                l(4) =   1
                l(5) =   2
                l(6) =   2
     Q(r) pseudized with  8 coefficients,  rinner =    0.900   0.900   0.900
                                                       0.900   0.900

     atomic species   valence    mass     pseudopotential
        Si             4.00    28.08600     Si( 1.00)

     48 Sym. Ops., with inversion, found (24 have fractional translation)



   Cartesian axes

     site n.     atom                  positions (alat units)
         1           Si  tau(   1) = (   0.0000000   0.0000000   0.0000000  )
         2           Si  tau(   2) = (   0.2500000   0.2500000   0.2500000  )

     number of k points=    28
                       cart. coord. in units 2pi/alat
        k(    1) = (  -0.0833333   0.0833333   0.0833333), wk =   0.0185185
        k(    2) = (  -0.2500000   0.2500000  -0.0833333), wk =   0.0555556
        k(    3) = (  -0.4166667   0.4166667  -0.2500000), wk =   0.0555556
        k(    4) = (   0.4166667  -0.4166667   0.5833333), wk =   0.0555556
        k(    5) = (   0.2500000  -0.2500000   0.4166667), wk =   0.0555556
        k(    6) = (   0.0833333  -0.0833333   0.2500000), wk =   0.0555556
        k(    7) = (  -0.0833333   0.4166667   0.0833333), wk =   0.0555556
        k(    8) = (  -0.2500000   0.5833333  -0.0833333), wk =   0.1111111
        k(    9) = (   0.5833333  -0.2500000   0.7500000), wk =   0.1111111
        k(   10) = (   0.4166667  -0.0833333   0.5833333), wk =   0.1111111
        k(   11) = (   0.2500000   0.0833333   0.4166667), wk =   0.1111111
        k(   12) = (  -0.0833333   0.7500000   0.0833333), wk =   0.0555556
        k(   13) = (   0.7500000  -0.0833333   0.9166667), wk =   0.1111111
        k(   14) = (   0.5833333   0.0833333   0.7500000), wk =   0.1111111
        k(   15) = (   0.4166667   0.2500000   0.5833333), wk =   0.1111111
        k(   16) = (  -0.0833333  -0.9166667   0.0833333), wk =   0.0555556
        k(   17) = (  -0.2500000  -0.7500000  -0.0833333), wk =   0.1111111
        k(   18) = (  -0.0833333  -0.5833333   0.0833333), wk =   0.0555556
        k(   19) = (  -0.2500000   0.2500000   0.2500000), wk =   0.0185185
        k(   20) = (  -0.4166667   0.4166667   0.0833333), wk =   0.0555556
        k(   21) = (   0.4166667  -0.4166667   0.9166667), wk =   0.0555556
        k(   22) = (   0.2500000  -0.2500000   0.7500000), wk =   0.0555556
        k(   23) = (  -0.2500000   0.5833333   0.2500000), wk =   0.0555556
        k(   24) = (   0.5833333  -0.2500000   1.0833333), wk =   0.1111111
        k(   25) = (   0.4166667  -0.0833333   0.9166667), wk =   0.1111111
        k(   26) = (  -0.2500000  -1.0833333   0.2500000), wk =   0.0555556
        k(   27) = (  -0.4166667   0.4166667   0.4166667), wk =   0.0185185
        k(   28) = (   0.4166667  -0.4166667   1.2500000), wk =   0.0555556

     Dense  grid:    17261 G-vectors     FFT dimensions: (  40,  40,  40)

     Smooth grid:     6183 G-vectors     FFT dimensions: (  25,  25,  25)

     Estimated max dynamical RAM per process >       3.35MB

     Estimated total allocated dynamical RAM >      13.41MB

     Initial potential from superposition of free atoms

     starting charge    7.99866, renormalised to    8.00000
     Starting wfc are    8 randomized atomic wfcs

     total cpu time spent up to now is        0.5 secs

     per-process dynamical memory:     9.8 Mb

     Self-consistent Calculation

     iteration #  1     ecut=    30.00 Ry     beta=0.70
     Davidson diagonalization with overlap
     ethr =  1.00E-02,  avg # of iterations =  2.0

     Threshold (ethr) on eigenvalues was too large:
     Diagonalizing with lowered threshold

     Davidson diagonalization with overlap
     ethr =  6.78E-04,  avg # of iterations =  1.0

     total cpu time spent up to now is        1.2 secs

     total energy              =     -19.19123185 Ry
     Harris-Foulkes estimate   =     -19.20371891 Ry
     estimated scf accuracy    <       0.05372663 Ry

     iteration #  2     ecut=    30.00 Ry     beta=0.70
     Davidson diagonalization with overlap
     ethr =  6.72E-04,  avg # of iterations =  1.0

     total cpu time spent up to now is        1.4 secs

     total energy              =     -19.19299671 Ry
     Harris-Foulkes estimate   =     -19.19316578 Ry
     estimated scf accuracy    <       0.00244863 Ry

     iteration #  3     ecut=    30.00 Ry     beta=0.70
     Davidson diagonalization with overlap
     ethr =  3.06E-05,  avg # of iterations =  2.1

     total cpu time spent up to now is        1.6 secs

     total energy              =     -19.19333019 Ry
     Harris-Foulkes estimate   =     -19.19334315 Ry
     estimated scf accuracy    <       0.00004224 Ry

     iteration #  4     ecut=    30.00 Ry     beta=0.70
     Davidson diagonalization with overlap
     ethr =  5.28E-07,  avg # of iterations =  3.4

     total cpu time spent up to now is        1.9 secs

     total energy              =     -19.19336889 Ry
     Harris-Foulkes estimate   =     -19.19336974 Ry
     estimated scf accuracy    <       0.00000310 Ry

     iteration #  5     ecut=    30.00 Ry     beta=0.70
     Davidson diagonalization with overlap
     ethr =  3.88E-08,  avg # of iterations =  2.0

     total cpu time spent up to now is        2.6 secs

     End of self-consistent calculation

          k =-0.0833 0.0833 0.0833 (   749 PWs)   bands (ev):

    -5.7460   5.1305   5.8483   5.8483

          k =-0.2500 0.2500-0.0833 (   770 PWs)   bands (ev):

    -5.2760   3.0634   4.6303   5.6390

          k =-0.4167 0.4167-0.2500 (   768 PWs)   bands (ev):

    -4.2008   0.3366   4.1675   5.0101

          k = 0.4167-0.4167 0.5833 (   767 PWs)   bands (ev):

    -3.5168  -0.7882   4.2306   4.6354

          k = 0.2500-0.2500 0.4167 (   772 PWs)   bands (ev):

    -4.6058   1.1715   4.6964   4.7233

          k = 0.0833-0.0833 0.2500 (   775 PWs)   bands (ev):

    -5.5087   4.0643   5.2128   5.3915

          k =-0.0833 0.4167 0.0833 (   775 PWs)   bands (ev):

    -5.0382   2.8672   4.4742   4.4929

          k =-0.2500 0.5833-0.0833 (   770 PWs)   bands (ev):

    -4.1412   1.0467   3.1770   4.1103

          k = 0.5833-0.2500 0.7500 (   759 PWs)   bands (ev):

    -3.0456  -0.6730   2.5792   3.8877

          k = 0.4167-0.0833 0.5833 (   768 PWs)   bands (ev):

    -3.7535   0.3652   2.5432   4.3656

          k = 0.2500 0.0833 0.4167 (   771 PWs)   bands (ev):

    -4.8161   2.0452   3.8638   5.0219

          k =-0.0833 0.7500 0.0833 (   769 PWs)   bands (ev):

    -3.4391   0.2216   3.1440   3.4770

          k = 0.7500-0.0833 0.9167 (   758 PWs)   bands (ev):

    -2.2619  -1.1019   2.3178   3.0786

          k = 0.5833 0.0833 0.7500 (   759 PWs)   bands (ev):

    -2.6312  -0.7640   1.8405   3.6158

          k = 0.4167 0.2500 0.5833 (   768 PWs)   bands (ev):

    -3.6448  -0.2994   3.4642   4.4612

          k =-0.0833-0.9167 0.0833 (   764 PWs)   bands (ev):

    -2.3506  -1.1090   2.8784   3.2642

          k =-0.2500-0.7500-0.0833 (   765 PWs)   bands (ev):

    -3.2740   0.0024   2.6318   3.4143

          k =-0.0833-0.5833 0.0833 (   767 PWs)   bands (ev):

    -4.3432   1.5734   3.6798   3.8941

          k =-0.2500 0.2500 0.2500 (   769 PWs)   bands (ev):

    -5.0499   2.0989   5.2421   5.2421

          k =-0.4167 0.4167 0.0833 (   767 PWs)   bands (ev):

    -4.3809   1.1670   3.1411   5.0739

          k = 0.4167-0.4167 0.9167 (   769 PWs)   bands (ev):

    -3.2213  -0.2614   2.0524   4.2997

          k = 0.2500-0.2500 0.7500 (   763 PWs)   bands (ev):

    -3.1691  -0.3400   2.5216   3.8251

          k =-0.2500 0.5833 0.2500 (   771 PWs)   bands (ev):

    -3.9636   0.3718   3.5925   4.1932

          k = 0.5833-0.2500 1.0833 (   761 PWs)   bands (ev):

    -2.9773  -0.3787   2.1519   3.4136

          k = 0.4167-0.0833 0.9167 (   755 PWs)   bands (ev):

    -2.1593  -1.1096   1.9943   2.7576

          k =-0.2500-1.0833 0.2500 (   758 PWs)   bands (ev):

    -2.3673  -1.0127   1.8698   3.6331

          k =-0.4167 0.4167 0.4167 (   769 PWs)   bands (ev):

    -3.8783  -0.3939   4.8571   4.8571

          k = 0.4167-0.4167 1.2500 (   768 PWs)   bands (ev):

    -3.2841  -0.6964   3.0453   4.4244

     highest occupied level (ev):     5.8483

!    total energy              =     -19.19336929 Ry
     Harris-Foulkes estimate   =     -19.19336929 Ry
     estimated scf accuracy    <          9.2E-09 Ry

     The total energy is the sum of the following terms:

     one-electron contribution =       4.95860190 Ry
     hartree contribution      =       1.13296150 Ry
     xc contribution           =      -8.59785260 Ry
     ewald contribution        =     -16.68708010 Ry

     convergence has been achieved in   5 iterations

     Writing output data file silicon.10.33.save

     init_run     :      0.34s CPU      0.39s WALL (       1 calls)
     electrons    :      1.37s CPU      2.09s WALL (       1 calls)

     Called by init_run:
     wfcinit      :      0.07s CPU      0.09s WALL (       1 calls)
     potinit      :      0.03s CPU      0.03s WALL (       1 calls)

     Called by electrons:
     c_bands      :      0.80s CPU      1.22s WALL (       6 calls)
     sum_band     :      0.33s CPU      0.52s WALL (       6 calls)
     v_of_rho     :      0.12s CPU      0.18s WALL (       6 calls)
     newd         :      0.14s CPU      0.18s WALL (       6 calls)
     mix_rho      :      0.01s CPU      0.01s WALL (       6 calls)

     Called by c_bands:
     init_us_2    :      0.05s CPU      0.06s WALL (     364 calls)
     cegterg      :      0.69s CPU      1.08s WALL (     168 calls)

     Called by sum_band:
     sum_band:bec :      0.00s CPU      0.00s WALL (     168 calls)
     addusdens    :      0.13s CPU      0.19s WALL (       6 calls)

     Called by *egterg:
     h_psi        :      0.60s CPU      0.91s WALL (     519 calls)
     s_psi        :      0.04s CPU      0.05s WALL (     519 calls)
     g_psi        :      0.00s CPU      0.00s WALL (     323 calls)
     cdiaghg      :      0.04s CPU      0.08s WALL (     463 calls)

     Called by h_psi:
     h_psi:pot    :      0.59s CPU      0.91s WALL (     519 calls)
     h_psi:calbec :      0.07s CPU      0.12s WALL (     519 calls)
     vloc_psi     :      0.49s CPU      0.74s WALL (     519 calls)
     add_vuspsi   :      0.04s CPU      0.05s WALL (     519 calls)

     General routines
     calbec       :      0.09s CPU      0.15s WALL (     687 calls)
     fft          :      0.08s CPU      0.15s WALL (      96 calls)
     ffts         :      0.00s CPU      0.01s WALL (      12 calls)
     fftw         :      0.51s CPU      0.86s WALL (    4612 calls)
     interpolate  :      0.01s CPU      0.02s WALL (      12 calls)
     davcio       :      0.00s CPU      0.00s WALL (      28 calls)

     Parallel routines
     fft_scatter  :      0.31s CPU      0.69s WALL (    4720 calls)

     PWSCF        :     1.91s CPU         2.70s WALL


   This run was terminated on:  10:14:44  10Nov2017            

=------------------------------------------------------------------------------=
   JOB DONE.
=------------------------------------------------------------------------------=
