
     Program PHONON v.6.1 (svn rev. 13369) starts on  9Nov2017 at  1: 7: 5 

     This program is part of the open-source Quantum ESPRESSO suite
     for quantum simulation of materials; please cite
         "P. Giannozzi et al., J. Phys.:Condens. Matter 21 395502 (2009);
          URL http://www.quantum-espresso.org", 
     in publications or presentations arising from this work. More details at
     http://www.quantum-espresso.org/quote

     Parallel version (MPI), running on     4 processors
     R & G space division:  proc/nbgrp/npool/nimage =       4

     Reading data from directory:
     ./silicon.10.22.save

   Info: using nr1, nr2, nr3 values from input

   Info: using nr1, nr2, nr3 values from input

     IMPORTANT: XC functional enforced from input :
     Exchange-correlation      = SLA  PW   PBE  PBE ( 1  4  3  4 0 0)
     Any further DFT definition will be discarded
     Please, verify this is what you really want


     Parallelization info
     --------------------
     sticks:   dense  smooth     PW     G-vecs:    dense   smooth      PW
     Min          63      63     21                  682      682     133
     Max          64      64     22                  686      686     136
     Sum         253     253     85                 2733     2733     537


     Check: negative/imaginary core charge=   -0.000006    0.000000


     Dynamical matrices for ( 4, 4, 4)  uniform grid of q-points
     (   8q-points):
       N         xq(1)         xq(2)         xq(3) 
       1   0.000000000   0.000000000   0.000000000
       2  -0.250000000   0.250000000  -0.250000000
       3   0.500000000  -0.500000000   0.500000000
       4   0.000000000   0.500000000   0.000000000
       5   0.750000000  -0.250000000   0.750000000
       6   0.500000000   0.000000000   0.500000000
       7   0.000000000  -1.000000000   0.000000000
       8  -0.500000000  -1.000000000   0.000000000

     Calculation of q =    0.0000000   0.0000000   0.0000000

                                                                                

     bravais-lattice index     =            2
     lattice parameter (alat)  =      10.2200  a.u.
     unit-cell volume          =     266.8657 (a.u.)^3
     number of atoms/cell      =            2
     number of atomic types    =            1
     kinetic-energy cut-off    =      18.0000  Ry
     charge density cut-off    =      72.0000  Ry
     convergence threshold     =      1.0E-12
     beta                      =       0.7000
     number of iterations used =            4
     Exchange-correlation      = SLA  PW   PBE  PBE ( 1  4  3  4 0 0)


     celldm(1)=   10.22000  celldm(2)=    0.00000  celldm(3)=    0.00000
     celldm(4)=    0.00000  celldm(5)=    0.00000  celldm(6)=    0.00000

     crystal axes: (cart. coord. in units of alat)
               a(1) = ( -0.5000  0.0000  0.5000 )  
               a(2) = (  0.0000  0.5000  0.5000 )  
               a(3) = ( -0.5000  0.5000  0.0000 )  

     reciprocal axes: (cart. coord. in units 2 pi/alat)
               b(1) = ( -1.0000 -1.0000  1.0000 )  
               b(2) = (  1.0000  1.0000  1.0000 )  
               b(3) = ( -1.0000  1.0000 -1.0000 )  


     Atoms inside the unit cell: 

     Cartesian axes

     site n.  atom      mass           positions (alat units)
        1     Si  28.0860   tau(    1) = (    0.00000    0.00000    0.00000  )
        2     Si  28.0860   tau(    2) = (    0.25000    0.25000    0.25000  )

     Computing dynamical matrix for 
                    q = (   0.0000000   0.0000000   0.0000000 )

     49 Sym.Ops. (with q -> -q+G )


     G cutoff =  190.4910  (    683 G-vectors)     FFT grid: ( 20, 20, 20)
     number of k points=    10

     PseudoPot. # 1 for Si read from file:
     /home/max/quantum_espresso/qe-6.1/pseudo/si_pbe_v1.uspp.F.UPF.txt
     MD5 check sum: a056efeee980c13900f22a371efd63c1
     Pseudo is Ultrasoft + core correction, Zval =  4.0
     Generated by new atomic code, or converted to UPF format
     Using radial grid of  899 points,  6 beta functions with: 
                l(1) =   0
                l(2) =   0
                l(3) =   1
                l(4) =   1
                l(5) =   2
                l(6) =   2
     Q(r) pseudized with  8 coefficients,  rinner =    0.900   0.900   0.900
                                                       0.900   0.900

     Mode symmetry, O_h (m-3m)  point group:


     Electric field:
     Dielectric constant
     Born effective charges in two ways 


     Atomic displacements:
     There are   2 irreducible representations

     Representation     1      3 modes -T_2g G_25' G_5+  To be done

     Representation     2      3 modes -T_1u G_15  G_4-  To be done



     Alpha used in Ewald sum =   0.7000
     PHONON       :     0.40s CPU         0.41s WALL


     Electric Fields Calculation

      iter #   1 total cpu time :     0.8 secs   av.it.:   5.5
      thresh= 1.000E-02 alpha_mix =  0.700 |ddv_scf|^2 =  9.015E-07

      iter #   2 total cpu time :     0.9 secs   av.it.:   9.9
      thresh= 9.495E-05 alpha_mix =  0.700 |ddv_scf|^2 =  5.332E-08

      iter #   3 total cpu time :     1.3 secs   av.it.:   9.8
      thresh= 2.309E-05 alpha_mix =  0.700 |ddv_scf|^2 =  3.982E-09

      iter #   4 total cpu time :     1.5 secs   av.it.:   9.0
      thresh= 6.310E-06 alpha_mix =  0.700 |ddv_scf|^2 =  2.226E-11

      iter #   5 total cpu time :     1.6 secs   av.it.:   9.1
      thresh= 4.719E-07 alpha_mix =  0.700 |ddv_scf|^2 =  1.159E-14

     End of electric fields calculation

          Dielectric constant in cartesian axis 

          (      13.684729401       0.000000000       0.000000000 )
          (       0.000000000      13.684729401      -0.000000000 )
          (       0.000000000      -0.000000000      13.684729401 )

          Effective charges (d Force / dE) in cartesian axis

           atom      1   Si 
      Ex  (       -0.03703        0.00000        0.00000 )
      Ey  (        0.00000       -0.03703       -0.00000 )
      Ez  (        0.00000       -0.00000       -0.03703 )
           atom      2   Si 
      Ex  (       -0.03703       -0.00000       -0.00000 )
      Ey  (       -0.00000       -0.03703        0.00000 )
      Ez  (       -0.00000        0.00000       -0.03703 )


     Representation #  1 modes #   1  2  3

     Self-consistent Calculation

      iter #   1 total cpu time :     2.0 secs   av.it.:   5.0
      thresh= 1.000E-02 alpha_mix =  0.700 |ddv_scf|^2 =  2.091E-07

      iter #   2 total cpu time :     2.2 secs   av.it.:   9.8
      thresh= 4.573E-05 alpha_mix =  0.700 |ddv_scf|^2 =  1.239E-08

      iter #   3 total cpu time :     2.4 secs   av.it.:   9.2
      thresh= 1.113E-05 alpha_mix =  0.700 |ddv_scf|^2 =  7.934E-10

      iter #   4 total cpu time :     2.5 secs   av.it.:   9.0
      thresh= 2.817E-06 alpha_mix =  0.700 |ddv_scf|^2 =  1.737E-12

      iter #   5 total cpu time :     2.7 secs   av.it.:   9.4
      thresh= 1.318E-07 alpha_mix =  0.700 |ddv_scf|^2 =  1.169E-14

     End of self-consistent calculation

     Convergence has been achieved 


     Representation #  2 modes #   4  5  6

     Self-consistent Calculation

      iter #   1 total cpu time :     2.9 secs   av.it.:   5.0
      thresh= 1.000E-02 alpha_mix =  0.700 |ddv_scf|^2 =  1.736E-07

      iter #   2 total cpu time :     3.3 secs   av.it.:   9.5
      thresh= 4.167E-05 alpha_mix =  0.700 |ddv_scf|^2 =  1.356E-08

      iter #   3 total cpu time :     3.5 secs   av.it.:   9.2
      thresh= 1.164E-05 alpha_mix =  0.700 |ddv_scf|^2 =  8.369E-10

      iter #   4 total cpu time :     3.6 secs   av.it.:   9.5
      thresh= 2.893E-06 alpha_mix =  0.700 |ddv_scf|^2 =  4.857E-12

      iter #   5 total cpu time :     3.8 secs   av.it.:   9.0
      thresh= 2.204E-07 alpha_mix =  0.700 |ddv_scf|^2 =  3.564E-15

     End of self-consistent calculation

     Convergence has been achieved 

     Number of q in the star =    1
     List of q in the star:
          1   0.000000000   0.000000000   0.000000000

          Dielectric constant in cartesian axis 

          (      13.684729401       0.000000000       0.000000000 )
          (       0.000000000      13.684729401      -0.000000000 )
          (       0.000000000      -0.000000000      13.684729401 )

          Effective charges (d Force / dE) in cartesian axis

           atom      1   Si 
      Ex  (       -0.03703        0.00000        0.00000 )
      Ey  (        0.00000       -0.03703       -0.00000 )
      Ez  (        0.00000       -0.00000       -0.03703 )
           atom      2   Si 
      Ex  (       -0.03703       -0.00000       -0.00000 )
      Ey  (       -0.00000       -0.03703        0.00000 )
      Ez  (       -0.00000        0.00000       -0.03703 )

          Effective charges (d P / du) in cartesian axis 

           atom      1   Si 
      Px  (       -0.07377       -0.00000        0.00000 )
      Py  (       -0.00000       -0.07377        0.00000 )
      Pz  (       -0.00000        0.00000       -0.07377 )
           atom      2   Si 
      Px  (       -0.07377       -0.00000       -0.00000 )
      Py  (       -0.00000       -0.07377        0.00000 )
      Pz  (       -0.00000        0.00000       -0.07377 )

     Diagonalizing the dynamical matrix

     q = (    0.000000000   0.000000000   0.000000000 ) 

 **************************************************************************
     freq (    1) =       1.747790 [THz] =      58.300011 [cm-1]
     freq (    2) =       1.747790 [THz] =      58.300011 [cm-1]
     freq (    3) =       1.747790 [THz] =      58.300011 [cm-1]
     freq (    4) =      15.633530 [THz] =     521.478440 [cm-1]
     freq (    5) =      15.633530 [THz] =     521.478440 [cm-1]
     freq (    6) =      15.633530 [THz] =     521.478440 [cm-1]
 **************************************************************************

     Mode symmetry, O_h (m-3m)  point group:

     freq (  1 -  3) =         58.3  [cm-1]   --> T_1u G_15  G_4- I  
     freq (  4 -  6) =        521.5  [cm-1]   --> T_2g G_25' G_5+ R  

     Calculation of q =   -0.2500000   0.2500000  -0.2500000

   Info: using nr1, nr2, nr3 values from input

   Info: using nr1, nr2, nr3 values from input

     Parallelization info
     --------------------
     sticks:   dense  smooth     PW     G-vecs:    dense   smooth      PW
     Min          63      63     24                  682      682     161
     Max          64      64     25                  686      686     162
     Sum         253     253     97                 2733     2733     645



     bravais-lattice index     =            2
     lattice parameter (alat)  =      10.2200  a.u.
     unit-cell volume          =     266.8657 (a.u.)^3
     number of atoms/cell      =            2
     number of atomic types    =            1
     number of electrons       =         8.00
     number of Kohn-Sham states=            4
     kinetic-energy cutoff     =      18.0000  Ry
     charge density cutoff     =      72.0000  Ry
     Exchange-correlation      = SLA  PW   PBE  PBE ( 1  4  3  4 0 0)

     celldm(1)=  10.220000  celldm(2)=   0.000000  celldm(3)=   0.000000
     celldm(4)=   0.000000  celldm(5)=   0.000000  celldm(6)=   0.000000

     crystal axes: (cart. coord. in units of alat)
               a(1) = (  -0.500000   0.000000   0.500000 )  
               a(2) = (   0.000000   0.500000   0.500000 )  
               a(3) = (  -0.500000   0.500000   0.000000 )  

     reciprocal axes: (cart. coord. in units 2 pi/alat)
               b(1) = ( -1.000000 -1.000000  1.000000 )  
               b(2) = (  1.000000  1.000000  1.000000 )  
               b(3) = ( -1.000000  1.000000 -1.000000 )  


     PseudoPot. # 1 for Si read from file:
     /home/max/quantum_espresso/qe-6.1/pseudo/si_pbe_v1.uspp.F.UPF.txt
     MD5 check sum: a056efeee980c13900f22a371efd63c1
     Pseudo is Ultrasoft + core correction, Zval =  4.0
     Generated by new atomic code, or converted to UPF format
     Using radial grid of  899 points,  6 beta functions with: 
                l(1) =   0
                l(2) =   0
                l(3) =   1
                l(4) =   1
                l(5) =   2
                l(6) =   2
     Q(r) pseudized with  8 coefficients,  rinner =    0.900   0.900   0.900
                                                       0.900   0.900

     atomic species   valence    mass     pseudopotential
        Si             4.00    28.08600     Si( 1.00)

     48 Sym. Ops., with inversion, found



   Cartesian axes

     site n.     atom                  positions (alat units)
         1           Si  tau(   1) = (   0.0000000   0.0000000   0.0000000  )
         2           Si  tau(   2) = (   0.2500000   0.2500000   0.2500000  )

     number of k points=   120

     Number of k-points >= 100: set verbosity='high' to print them.

     Dense  grid:     2733 G-vectors     FFT dimensions: (  20,  20,  20)

     Estimated max dynamical RAM per process >       0.32MB

     Estimated total allocated dynamical RAM >       1.29MB

     Check: negative/imaginary core charge=   -0.000006    0.000000

     The potential is recalculated from file :
     ./_ph0/silicon.10.22.save/charge-density.dat

     Starting wfc are    8 atomic wfcs

     Band Structure Calculation
     Davidson diagonalization with overlap

     ethr =  1.25E-10,  avg # of iterations = 11.6

     total cpu time spent up to now is        0.8 secs

     End of band structure calculation

     Number of k-points >= 100: set verbosity='high' to print the bands.

     highest occupied level (ev):     6.0342

     Writing output data file silicon.10.22.save

                                                                                

     bravais-lattice index     =            2
     lattice parameter (alat)  =      10.2200  a.u.
     unit-cell volume          =     266.8657 (a.u.)^3
     number of atoms/cell      =            2
     number of atomic types    =            1
     kinetic-energy cut-off    =      18.0000  Ry
     charge density cut-off    =      72.0000  Ry
     convergence threshold     =      1.0E-12
     beta                      =       0.7000
     number of iterations used =            4
     Exchange-correlation      = SLA  PW   PBE  PBE ( 1  4  3  4 0 0)


     celldm(1)=   10.22000  celldm(2)=    0.00000  celldm(3)=    0.00000
     celldm(4)=    0.00000  celldm(5)=    0.00000  celldm(6)=    0.00000

     crystal axes: (cart. coord. in units of alat)
               a(1) = ( -0.5000  0.0000  0.5000 )  
               a(2) = (  0.0000  0.5000  0.5000 )  
               a(3) = ( -0.5000  0.5000  0.0000 )  

     reciprocal axes: (cart. coord. in units 2 pi/alat)
               b(1) = ( -1.0000 -1.0000  1.0000 )  
               b(2) = (  1.0000  1.0000  1.0000 )  
               b(3) = ( -1.0000  1.0000 -1.0000 )  


     Atoms inside the unit cell: 

     Cartesian axes

     site n.  atom      mass           positions (alat units)
        1     Si  28.0860   tau(    1) = (    0.00000    0.00000    0.00000  )
        2     Si  28.0860   tau(    2) = (    0.25000    0.25000    0.25000  )

     Computing dynamical matrix for 
                    q = (  -0.2500000   0.2500000  -0.2500000 )

      6 Sym.Ops. (no q -> -q+G )


     G cutoff =  190.4910  (    683 G-vectors)     FFT grid: ( 20, 20, 20)
     number of k points=   120

     PseudoPot. # 1 for Si read from file:
     /home/max/quantum_espresso/qe-6.1/pseudo/si_pbe_v1.uspp.F.UPF.txt
     MD5 check sum: a056efeee980c13900f22a371efd63c1
     Pseudo is Ultrasoft + core correction, Zval =  4.0
     Generated by new atomic code, or converted to UPF format
     Using radial grid of  899 points,  6 beta functions with: 
                l(1) =   0
                l(2) =   0
                l(3) =   1
                l(4) =   1
                l(5) =   2
                l(6) =   2
     Q(r) pseudized with  8 coefficients,  rinner =    0.900   0.900   0.900
                                                       0.900   0.900

     Mode symmetry, C_3v (3m)   point group:


     Atomic displacements:
     There are   4 irreducible representations

     Representation     1      1 modes -A_1  L_1  To be done

     Representation     2      1 modes -A_1  L_1  To be done

     Representation     3      2 modes -E    L_3  To be done

     Representation     4      2 modes -E    L_3  To be done



     Alpha used in Ewald sum =   0.7000
     PHONON       :     4.86s CPU         5.23s WALL



     Representation #  1 mode #   1

     Self-consistent Calculation

      iter #   1 total cpu time :     5.4 secs   av.it.:   5.5
      thresh= 1.000E-02 alpha_mix =  0.700 |ddv_scf|^2 =  2.556E-03

      iter #   2 total cpu time :     5.7 secs   av.it.:   7.4
      thresh= 5.056E-03 alpha_mix =  0.700 |ddv_scf|^2 =  3.818E-02

      iter #   3 total cpu time :     5.9 secs   av.it.:   6.3
      thresh= 1.000E-02 alpha_mix =  0.700 |ddv_scf|^2 =  1.693E-06

      iter #   4 total cpu time :     6.2 secs   av.it.:   8.2
      thresh= 1.301E-04 alpha_mix =  0.700 |ddv_scf|^2 =  1.070E-07

      iter #   5 total cpu time :     6.4 secs   av.it.:   8.1
      thresh= 3.271E-05 alpha_mix =  0.700 |ddv_scf|^2 =  4.812E-09

      iter #   6 total cpu time :     6.7 secs   av.it.:   7.8
      thresh= 6.937E-06 alpha_mix =  0.700 |ddv_scf|^2 =  1.273E-08

      iter #   7 total cpu time :     6.9 secs   av.it.:   5.8
      thresh= 1.128E-05 alpha_mix =  0.700 |ddv_scf|^2 =  1.339E-10

      iter #   8 total cpu time :     7.1 secs   av.it.:   7.7
      thresh= 1.157E-06 alpha_mix =  0.700 |ddv_scf|^2 =  4.490E-12

      iter #   9 total cpu time :     7.4 secs   av.it.:   7.1
      thresh= 2.119E-07 alpha_mix =  0.700 |ddv_scf|^2 =  1.828E-13

     End of self-consistent calculation

     Convergence has been achieved 


     Representation #  2 mode #   2

     Self-consistent Calculation

      iter #   1 total cpu time :     7.6 secs   av.it.:   5.5
      thresh= 1.000E-02 alpha_mix =  0.700 |ddv_scf|^2 =  2.556E-03

      iter #   2 total cpu time :     7.8 secs   av.it.:   7.4
      thresh= 5.056E-03 alpha_mix =  0.700 |ddv_scf|^2 =  3.818E-02

      iter #   3 total cpu time :     8.0 secs   av.it.:   6.3
      thresh= 1.000E-02 alpha_mix =  0.700 |ddv_scf|^2 =  1.693E-06

      iter #   4 total cpu time :     8.3 secs   av.it.:   8.2
      thresh= 1.301E-04 alpha_mix =  0.700 |ddv_scf|^2 =  1.070E-07

      iter #   5 total cpu time :     8.6 secs   av.it.:   8.1
      thresh= 3.271E-05 alpha_mix =  0.700 |ddv_scf|^2 =  4.812E-09

      iter #   6 total cpu time :     8.8 secs   av.it.:   7.8
      thresh= 6.937E-06 alpha_mix =  0.700 |ddv_scf|^2 =  1.273E-08

      iter #   7 total cpu time :     9.0 secs   av.it.:   5.8
      thresh= 1.128E-05 alpha_mix =  0.700 |ddv_scf|^2 =  1.339E-10

      iter #   8 total cpu time :     9.3 secs   av.it.:   7.7
      thresh= 1.157E-06 alpha_mix =  0.700 |ddv_scf|^2 =  4.490E-12

      iter #   9 total cpu time :     9.5 secs   av.it.:   7.1
      thresh= 2.119E-07 alpha_mix =  0.700 |ddv_scf|^2 =  1.828E-13

     End of self-consistent calculation

     Convergence has been achieved 


     Representation #  3 modes #   3  4

     Self-consistent Calculation

      iter #   1 total cpu time :     9.9 secs   av.it.:   4.9
      thresh= 1.000E-02 alpha_mix =  0.700 |ddv_scf|^2 =  5.435E-07

      iter #   2 total cpu time :    10.5 secs   av.it.:   9.4
      thresh= 7.373E-05 alpha_mix =  0.700 |ddv_scf|^2 =  3.978E-08

      iter #   3 total cpu time :    11.0 secs   av.it.:   9.2
      thresh= 1.994E-05 alpha_mix =  0.700 |ddv_scf|^2 =  3.352E-09

      iter #   4 total cpu time :    11.6 secs   av.it.:   8.9
      thresh= 5.790E-06 alpha_mix =  0.700 |ddv_scf|^2 =  1.030E-11

      iter #   5 total cpu time :    12.1 secs   av.it.:   9.1
      thresh= 3.209E-07 alpha_mix =  0.700 |ddv_scf|^2 =  4.784E-13

     End of self-consistent calculation

     Convergence has been achieved 


     Representation #  4 modes #   5  6

     Self-consistent Calculation

      iter #   1 total cpu time :    12.5 secs   av.it.:   5.0
      thresh= 1.000E-02 alpha_mix =  0.700 |ddv_scf|^2 =  5.433E-07

      iter #   2 total cpu time :    13.1 secs   av.it.:   9.6
      thresh= 7.371E-05 alpha_mix =  0.700 |ddv_scf|^2 =  3.973E-08

      iter #   3 total cpu time :    13.7 secs   av.it.:   9.4
      thresh= 1.993E-05 alpha_mix =  0.700 |ddv_scf|^2 =  3.349E-09

      iter #   4 total cpu time :    14.2 secs   av.it.:   9.1
      thresh= 5.787E-06 alpha_mix =  0.700 |ddv_scf|^2 =  1.030E-11

      iter #   5 total cpu time :    14.8 secs   av.it.:   9.2
      thresh= 3.209E-07 alpha_mix =  0.700 |ddv_scf|^2 =  4.786E-13

     End of self-consistent calculation

     Convergence has been achieved 

     Number of q in the star =    8
     List of q in the star:
          1  -0.250000000   0.250000000  -0.250000000
          2   0.250000000  -0.250000000  -0.250000000
          3   0.250000000  -0.250000000   0.250000000
          4   0.250000000   0.250000000   0.250000000
          5  -0.250000000  -0.250000000  -0.250000000
          6  -0.250000000  -0.250000000   0.250000000
          7  -0.250000000   0.250000000   0.250000000
          8   0.250000000   0.250000000  -0.250000000

     Diagonalizing the dynamical matrix

     q = (   -0.250000000   0.250000000  -0.250000000 ) 

 **************************************************************************
     freq (    1) =       3.251400 [THz] =     108.455021 [cm-1]
     freq (    2) =       3.251400 [THz] =     108.455021 [cm-1]
     freq (    3) =       7.137918 [THz] =     238.095307 [cm-1]
     freq (    4) =      14.690386 [THz] =     490.018547 [cm-1]
     freq (    5) =      15.068017 [THz] =     502.614934 [cm-1]
     freq (    6) =      15.068017 [THz] =     502.614934 [cm-1]
 **************************************************************************

     Mode symmetry, C_3v (3m)   point group:

     freq (  1 -  2) =        108.5  [cm-1]   --> E    L_3           
     freq (  3 -  3) =        238.1  [cm-1]   --> A_1  L_1           
     freq (  4 -  4) =        490.0  [cm-1]   --> A_1  L_1           
     freq (  5 -  6) =        502.6  [cm-1]   --> E    L_3           

     Calculation of q =    0.5000000  -0.5000000   0.5000000

   Info: using nr1, nr2, nr3 values from input

   Info: using nr1, nr2, nr3 values from input

     Parallelization info
     --------------------
     sticks:   dense  smooth     PW     G-vecs:    dense   smooth      PW
     Min          63      63     27                  682      682     181
     Max          64      64     28                  686      686     182
     Sum         253     253    109                 2733     2733     725



     bravais-lattice index     =            2
     lattice parameter (alat)  =      10.2200  a.u.
     unit-cell volume          =     266.8657 (a.u.)^3
     number of atoms/cell      =            2
     number of atomic types    =            1
     number of electrons       =         8.00
     number of Kohn-Sham states=            4
     kinetic-energy cutoff     =      18.0000  Ry
     charge density cutoff     =      72.0000  Ry
     Exchange-correlation      = SLA  PW   PBE  PBE ( 1  4  3  4 0 0)

     celldm(1)=  10.220000  celldm(2)=   0.000000  celldm(3)=   0.000000
     celldm(4)=   0.000000  celldm(5)=   0.000000  celldm(6)=   0.000000

     crystal axes: (cart. coord. in units of alat)
               a(1) = (  -0.500000   0.000000   0.500000 )  
               a(2) = (   0.000000   0.500000   0.500000 )  
               a(3) = (  -0.500000   0.500000   0.000000 )  

     reciprocal axes: (cart. coord. in units 2 pi/alat)
               b(1) = ( -1.000000 -1.000000  1.000000 )  
               b(2) = (  1.000000  1.000000  1.000000 )  
               b(3) = ( -1.000000  1.000000 -1.000000 )  


     PseudoPot. # 1 for Si read from file:
     /home/max/quantum_espresso/qe-6.1/pseudo/si_pbe_v1.uspp.F.UPF.txt
     MD5 check sum: a056efeee980c13900f22a371efd63c1
     Pseudo is Ultrasoft + core correction, Zval =  4.0
     Generated by new atomic code, or converted to UPF format
     Using radial grid of  899 points,  6 beta functions with: 
                l(1) =   0
                l(2) =   0
                l(3) =   1
                l(4) =   1
                l(5) =   2
                l(6) =   2
     Q(r) pseudized with  8 coefficients,  rinner =    0.900   0.900   0.900
                                                       0.900   0.900

     atomic species   valence    mass     pseudopotential
        Si             4.00    28.08600     Si( 1.00)

     48 Sym. Ops., with inversion, found



   Cartesian axes

     site n.     atom                  positions (alat units)
         1           Si  tau(   1) = (   0.0000000   0.0000000   0.0000000  )
         2           Si  tau(   2) = (   0.2500000   0.2500000   0.2500000  )

     number of k points=    60
                       cart. coord. in units 2pi/alat
        k(    1) = (  -0.1250000   0.1250000   0.1250000), wk =   0.0468750
        k(    2) = (   0.3750000  -0.3750000   0.6250000), wk =   0.0000000
        k(    3) = (  -0.3750000   0.3750000  -0.1250000), wk =   0.0468750
        k(    4) = (   0.1250000  -0.1250000   0.3750000), wk =   0.0000000
        k(    5) = (   0.3750000  -0.3750000   0.6250000), wk =   0.0468750
        k(    6) = (   0.8750000  -0.8750000   1.1250000), wk =   0.0000000
        k(    7) = (   0.1250000  -0.1250000   0.3750000), wk =   0.0468750
        k(    8) = (   0.6250000  -0.6250000   0.8750000), wk =   0.0000000
        k(    9) = (  -0.1250000   0.6250000   0.1250000), wk =   0.0937500
        k(   10) = (   0.3750000   0.1250000   0.6250000), wk =   0.0000000
        k(   11) = (   0.6250000  -0.1250000   0.8750000), wk =   0.0937500
        k(   12) = (   1.1250000  -0.6250000   1.3750000), wk =   0.0000000
        k(   13) = (   0.3750000   0.1250000   0.6250000), wk =   0.0937500
        k(   14) = (   0.8750000  -0.3750000   1.1250000), wk =   0.0000000
        k(   15) = (  -0.1250000  -0.8750000   0.1250000), wk =   0.0937500
        k(   16) = (   0.3750000  -1.3750000   0.6250000), wk =   0.0000000
        k(   17) = (  -0.3750000   0.3750000   0.3750000), wk =   0.0468750
        k(   18) = (   0.1250000  -0.1250000   0.8750000), wk =   0.0000000
        k(   19) = (   0.3750000  -0.3750000   1.1250000), wk =   0.0468750
        k(   20) = (   0.8750000  -0.8750000   1.6250000), wk =   0.0000000
        k(   21) = (   0.1250000  -0.1250000   0.1250000), wk =   0.0156250
        k(   22) = (   0.6250000  -0.6250000   0.6250000), wk =   0.0000000
        k(   23) = (  -0.3750000  -0.3750000  -0.1250000), wk =   0.0937500
        k(   24) = (   0.1250000  -0.8750000   0.3750000), wk =   0.0000000
        k(   25) = (  -0.1250000  -0.3750000   0.3750000), wk =   0.0468750
        k(   26) = (   0.3750000  -0.8750000   0.8750000), wk =   0.0000000
        k(   27) = (   0.3750000   0.3750000   0.6250000), wk =   0.0937500
        k(   28) = (   0.8750000  -0.1250000   1.1250000), wk =   0.0000000
        k(   29) = (   0.6250000   0.3750000  -0.3750000), wk =   0.0468750
        k(   30) = (   1.1250000  -0.1250000   0.1250000), wk =   0.0000000
        k(   31) = (   0.1250000   0.1250000   0.3750000), wk =   0.0937500
        k(   32) = (   0.6250000  -0.3750000   0.8750000), wk =   0.0000000
        k(   33) = (   0.3750000   0.1250000  -0.1250000), wk =   0.0468750
        k(   34) = (   0.8750000  -0.3750000   0.3750000), wk =   0.0000000
        k(   35) = (  -0.1250000  -0.6250000  -0.1250000), wk =   0.0468750
        k(   36) = (   0.3750000  -1.1250000   0.3750000), wk =   0.0000000
        k(   37) = (   0.1250000  -0.6250000   0.1250000), wk =   0.0468750
        k(   38) = (   0.6250000  -1.1250000   0.6250000), wk =   0.0000000
        k(   39) = (   0.6250000   0.1250000   0.8750000), wk =   0.0937500
        k(   40) = (   1.1250000  -0.3750000   1.3750000), wk =   0.0000000
        k(   41) = (  -0.8750000   0.1250000   0.6250000), wk =   0.0937500
        k(   42) = (  -0.3750000  -0.3750000   1.1250000), wk =   0.0000000
        k(   43) = (   0.8750000   0.1250000  -0.6250000), wk =   0.0937500
        k(   44) = (   1.3750000  -0.3750000  -0.1250000), wk =   0.0000000
        k(   45) = (   0.3750000  -0.1250000   0.6250000), wk =   0.0937500
        k(   46) = (   0.8750000  -0.6250000   1.1250000), wk =   0.0000000
        k(   47) = (  -0.6250000  -0.1250000   0.3750000), wk =   0.0937500
        k(   48) = (  -0.1250000  -0.6250000   0.8750000), wk =   0.0000000
        k(   49) = (   0.6250000  -0.1250000  -0.3750000), wk =   0.0937500
        k(   50) = (   1.1250000  -0.6250000   0.1250000), wk =   0.0000000
        k(   51) = (  -0.1250000   0.8750000  -0.1250000), wk =   0.0468750
        k(   52) = (   0.3750000   0.3750000   0.3750000), wk =   0.0000000
        k(   53) = (   0.1250000   0.8750000   0.1250000), wk =   0.0468750
        k(   54) = (   0.6250000   0.3750000   0.6250000), wk =   0.0000000
        k(   55) = (   0.3750000  -0.3750000   0.3750000), wk =   0.0156250
        k(   56) = (   0.8750000  -0.8750000   0.8750000), wk =   0.0000000
        k(   57) = (   0.3750000   0.3750000   1.1250000), wk =   0.0937500
        k(   58) = (   0.8750000  -0.1250000   1.6250000), wk =   0.0000000
        k(   59) = (   1.1250000   0.3750000  -0.3750000), wk =   0.0468750
        k(   60) = (   1.6250000  -0.1250000   0.1250000), wk =   0.0000000

     Dense  grid:     2733 G-vectors     FFT dimensions: (  20,  20,  20)

     Estimated max dynamical RAM per process >       0.32MB

     Estimated total allocated dynamical RAM >       1.29MB

     Check: negative/imaginary core charge=   -0.000006    0.000000

     The potential is recalculated from file :
     ./_ph0/silicon.10.22.save/charge-density.dat

     Starting wfc are    8 atomic wfcs

     Band Structure Calculation
     Davidson diagonalization with overlap

     ethr =  1.25E-10,  avg # of iterations = 11.6

     total cpu time spent up to now is        1.3 secs

     End of band structure calculation

          k =-0.1250 0.1250 0.1250 (   335 PWs)   bands (ev):

    -5.5088   4.7249   6.0342   6.0342

          k = 0.3750-0.3750 0.6250 (   343 PWs)   bands (ev):

    -3.2710  -0.4671   4.0317   4.7477

          k =-0.3750 0.3750-0.1250 (   341 PWs)   bands (ev):

    -4.4530   1.6776   3.9964   5.5449

          k = 0.1250-0.1250 0.3750 (   338 PWs)   bands (ev):

    -4.9666   3.0924   4.9927   5.0771

          k = 0.3750-0.3750 0.6250 (   343 PWs)   bands (ev):

    -3.2710  -0.4671   4.0317   4.7477

          k = 0.8750-0.8750 1.1250 (   335 PWs)   bands (ev):

    -5.5088   4.7249   6.0342   6.0342

          k = 0.1250-0.1250 0.3750 (   338 PWs)   bands (ev):

    -4.9666   3.0924   4.9927   5.0771

          k = 0.6250-0.6250 0.8750 (   341 PWs)   bands (ev):

    -4.4530   1.6776   3.9964   5.5449

          k =-0.1250 0.6250 0.1250 (   337 PWs)   bands (ev):

    -3.9056   1.3694   3.6305   4.0942

          k = 0.3750 0.1250 0.6250 (   344 PWs)   bands (ev):

    -3.4754   0.4555   2.9771   4.3770

          k = 0.6250-0.1250 0.8750 (   347 PWs)   bands (ev):

    -2.2119  -0.6393   2.2257   3.3353

          k = 1.1250-0.6250 1.3750 (   341 PWs)   bands (ev):

    -4.4530   1.6776   3.9964   5.5449

          k = 0.3750 0.1250 0.6250 (   344 PWs)   bands (ev):

    -3.4754   0.4555   2.9771   4.3770

          k = 0.8750-0.3750 1.1250 (   337 PWs)   bands (ev):

    -3.9056   1.3694   3.6305   4.0942

          k =-0.1250-0.8750 0.1250 (   344 PWs)   bands (ev):

    -2.3914  -0.5351   2.8551   3.6149

          k = 0.3750-1.3750 0.6250 (   343 PWs)   bands (ev):

    -3.2710  -0.4671   4.0317   4.7477

          k =-0.3750 0.3750 0.3750 (   350 PWs)   bands (ev):

    -4.0054   0.3404   5.2286   5.2286

          k = 0.1250-0.1250 0.8750 (   344 PWs)   bands (ev):

    -2.3914  -0.5351   2.8551   3.6149

          k = 0.3750-0.3750 1.1250 (   347 PWs)   bands (ev):

    -2.7616  -0.3522   2.2974   4.4197

          k = 0.8750-0.8750 1.6250 (   337 PWs)   bands (ev):

    -3.9056   1.3694   3.6305   4.0942

          k = 0.1250-0.1250 0.1250 (   335 PWs)   bands (ev):

    -5.5088   4.7249   6.0342   6.0342

          k = 0.6250-0.6250 0.6250 (   350 PWs)   bands (ev):

    -4.0054   0.3404   5.2286   5.2286

          k =-0.3750-0.3750-0.1250 (   341 PWs)   bands (ev):

    -4.4530   1.6776   3.9964   5.5449

          k = 0.1250-0.8750 0.3750 (   347 PWs)   bands (ev):

    -2.2119  -0.6393   2.2257   3.3353

          k =-0.1250-0.3750 0.3750 (   341 PWs)   bands (ev):

    -4.4530   1.6776   3.9964   5.5449

          k = 0.3750-0.8750 0.8750 (   337 PWs)   bands (ev):

    -3.9056   1.3694   3.6305   4.0942

          k = 0.3750 0.3750 0.6250 (   343 PWs)   bands (ev):

    -3.2710  -0.4671   4.0317   4.7477

          k = 0.8750-0.1250 1.1250 (   344 PWs)   bands (ev):

    -2.3914  -0.5351   2.8551   3.6149

          k = 0.6250 0.3750-0.3750 (   343 PWs)   bands (ev):

    -3.2710  -0.4671   4.0317   4.7477

          k = 1.1250-0.1250 0.1250 (   344 PWs)   bands (ev):

    -2.3914  -0.5351   2.8551   3.6149

          k = 0.1250 0.1250 0.3750 (   338 PWs)   bands (ev):

    -4.9666   3.0924   4.9927   5.0771

          k = 0.6250-0.3750 0.8750 (   344 PWs)   bands (ev):

    -3.4754   0.4555   2.9771   4.3770

          k = 0.3750 0.1250-0.1250 (   338 PWs)   bands (ev):

    -4.9666   3.0924   4.9927   5.0771

          k = 0.8750-0.3750 0.3750 (   347 PWs)   bands (ev):

    -2.7616  -0.3522   2.2974   4.4197

          k =-0.1250-0.6250-0.1250 (   337 PWs)   bands (ev):

    -3.9056   1.3694   3.6305   4.0942

          k = 0.3750-1.1250 0.3750 (   347 PWs)   bands (ev):

    -2.7616  -0.3522   2.2974   4.4197

          k = 0.1250-0.6250 0.1250 (   337 PWs)   bands (ev):

    -3.9056   1.3694   3.6305   4.0942

          k = 0.6250-1.1250 0.6250 (   341 PWs)   bands (ev):

    -4.4530   1.6776   3.9964   5.5449

          k = 0.6250 0.1250 0.8750 (   347 PWs)   bands (ev):

    -2.2119  -0.6393   2.2257   3.3353

          k = 1.1250-0.3750 1.3750 (   344 PWs)   bands (ev):

    -3.4754   0.4555   2.9771   4.3770

          k =-0.8750 0.1250 0.6250 (   347 PWs)   bands (ev):

    -2.2119  -0.6393   2.2257   3.3353

          k =-0.3750-0.3750 1.1250 (   347 PWs)   bands (ev):

    -2.7616  -0.3522   2.2974   4.4197

          k = 0.8750 0.1250-0.6250 (   347 PWs)   bands (ev):

    -2.2119  -0.6393   2.2257   3.3353

          k = 1.3750-0.3750-0.1250 (   344 PWs)   bands (ev):

    -3.4754   0.4555   2.9771   4.3770

          k = 0.3750-0.1250 0.6250 (   344 PWs)   bands (ev):

    -3.4754   0.4555   2.9771   4.3770

          k = 0.8750-0.6250 1.1250 (   338 PWs)   bands (ev):

    -4.9666   3.0924   4.9927   5.0771

          k =-0.6250-0.1250 0.3750 (   344 PWs)   bands (ev):

    -3.4754   0.4555   2.9771   4.3770

          k =-0.1250-0.6250 0.8750 (   347 PWs)   bands (ev):

    -2.2119  -0.6393   2.2257   3.3353

          k = 0.6250-0.1250-0.3750 (   344 PWs)   bands (ev):

    -3.4754   0.4555   2.9771   4.3770

          k = 1.1250-0.6250 0.1250 (   347 PWs)   bands (ev):

    -2.2119  -0.6393   2.2257   3.3353

          k =-0.1250 0.8750-0.1250 (   344 PWs)   bands (ev):

    -2.3914  -0.5351   2.8551   3.6149

          k = 0.3750 0.3750 0.3750 (   350 PWs)   bands (ev):

    -4.0054   0.3404   5.2286   5.2286

          k = 0.1250 0.8750 0.1250 (   344 PWs)   bands (ev):

    -2.3914  -0.5351   2.8551   3.6149

          k = 0.6250 0.3750 0.6250 (   343 PWs)   bands (ev):

    -3.2710  -0.4671   4.0317   4.7477

          k = 0.3750-0.3750 0.3750 (   350 PWs)   bands (ev):

    -4.0054   0.3404   5.2286   5.2286

          k = 0.8750-0.8750 0.8750 (   335 PWs)   bands (ev):

    -5.5088   4.7249   6.0342   6.0342

          k = 0.3750 0.3750 1.1250 (   347 PWs)   bands (ev):

    -2.7616  -0.3522   2.2974   4.4197

          k = 0.8750-0.1250 1.6250 (   347 PWs)   bands (ev):

    -2.2119  -0.6393   2.2257   3.3353

          k = 1.1250 0.3750-0.3750 (   347 PWs)   bands (ev):

    -2.7616  -0.3522   2.2974   4.4197

          k = 1.6250-0.1250 0.1250 (   338 PWs)   bands (ev):

    -4.9666   3.0924   4.9927   5.0771

     highest occupied level (ev):     6.0342

     Writing output data file silicon.10.22.save

                                                                                

     bravais-lattice index     =            2
     lattice parameter (alat)  =      10.2200  a.u.
     unit-cell volume          =     266.8657 (a.u.)^3
     number of atoms/cell      =            2
     number of atomic types    =            1
     kinetic-energy cut-off    =      18.0000  Ry
     charge density cut-off    =      72.0000  Ry
     convergence threshold     =      1.0E-12
     beta                      =       0.7000
     number of iterations used =            4
     Exchange-correlation      = SLA  PW   PBE  PBE ( 1  4  3  4 0 0)


     celldm(1)=   10.22000  celldm(2)=    0.00000  celldm(3)=    0.00000
     celldm(4)=    0.00000  celldm(5)=    0.00000  celldm(6)=    0.00000

     crystal axes: (cart. coord. in units of alat)
               a(1) = ( -0.5000  0.0000  0.5000 )  
               a(2) = (  0.0000  0.5000  0.5000 )  
               a(3) = ( -0.5000  0.5000  0.0000 )  

     reciprocal axes: (cart. coord. in units 2 pi/alat)
               b(1) = ( -1.0000 -1.0000  1.0000 )  
               b(2) = (  1.0000  1.0000  1.0000 )  
               b(3) = ( -1.0000  1.0000 -1.0000 )  


     Atoms inside the unit cell: 

     Cartesian axes

     site n.  atom      mass           positions (alat units)
        1     Si  28.0860   tau(    1) = (    0.00000    0.00000    0.00000  )
        2     Si  28.0860   tau(    2) = (    0.25000    0.25000    0.25000  )

     Computing dynamical matrix for 
                    q = (   0.5000000  -0.5000000   0.5000000 )

     13 Sym.Ops. (with q -> -q+G )


     G cutoff =  190.4910  (    683 G-vectors)     FFT grid: ( 20, 20, 20)
     number of k points=    60

     PseudoPot. # 1 for Si read from file:
     /home/max/quantum_espresso/qe-6.1/pseudo/si_pbe_v1.uspp.F.UPF.txt
     MD5 check sum: a056efeee980c13900f22a371efd63c1
     Pseudo is Ultrasoft + core correction, Zval =  4.0
     Generated by new atomic code, or converted to UPF format
     Using radial grid of  899 points,  6 beta functions with: 
                l(1) =   0
                l(2) =   0
                l(3) =   1
                l(4) =   1
                l(5) =   2
                l(6) =   2
     Q(r) pseudized with  8 coefficients,  rinner =    0.900   0.900   0.900
                                                       0.900   0.900


     Atomic displacements:
     There are   4 irreducible representations

     Representation     1      1 modes -  To be done

     Representation     2      1 modes -  To be done

     Representation     3      2 modes -  To be done

     Representation     4      2 modes -  To be done



     Alpha used in Ewald sum =   0.7000
     PHONON       :    14.65s CPU        15.49s WALL



     Representation #  1 mode #   1

     Self-consistent Calculation

      iter #   1 total cpu time :    15.6 secs   av.it.:   4.8
      thresh= 1.000E-02 alpha_mix =  0.700 |ddv_scf|^2 =  2.547E-05

      iter #   2 total cpu time :    15.7 secs   av.it.:   8.3
      thresh= 5.047E-04 alpha_mix =  0.700 |ddv_scf|^2 =  2.215E-05

      iter #   3 total cpu time :    15.9 secs   av.it.:   7.5
      thresh= 4.706E-04 alpha_mix =  0.700 |ddv_scf|^2 =  3.728E-08

      iter #   4 total cpu time :    16.0 secs   av.it.:   7.6
      thresh= 1.931E-05 alpha_mix =  0.700 |ddv_scf|^2 =  1.413E-10

      iter #   5 total cpu time :    16.1 secs   av.it.:   7.9
      thresh= 1.189E-06 alpha_mix =  0.700 |ddv_scf|^2 =  3.623E-12

      iter #   6 total cpu time :    16.3 secs   av.it.:   7.7
      thresh= 1.903E-07 alpha_mix =  0.700 |ddv_scf|^2 =  5.135E-14

     End of self-consistent calculation

     Convergence has been achieved 


     Representation #  2 mode #   2

     Self-consistent Calculation

      iter #   1 total cpu time :    16.4 secs   av.it.:   5.7
      thresh= 1.000E-02 alpha_mix =  0.700 |ddv_scf|^2 =  3.575E-04

      iter #   2 total cpu time :    16.6 secs   av.it.:   8.3
      thresh= 1.891E-03 alpha_mix =  0.700 |ddv_scf|^2 =  1.094E-03

      iter #   3 total cpu time :    16.7 secs   av.it.:   7.1
      thresh= 3.308E-03 alpha_mix =  0.700 |ddv_scf|^2 =  1.077E-07

      iter #   4 total cpu time :    16.8 secs   av.it.:   8.1
      thresh= 3.282E-05 alpha_mix =  0.700 |ddv_scf|^2 =  6.257E-09

      iter #   5 total cpu time :    17.0 secs   av.it.:   8.4
      thresh= 7.910E-06 alpha_mix =  0.700 |ddv_scf|^2 =  1.245E-10

      iter #   6 total cpu time :    17.1 secs   av.it.:   8.3
      thresh= 1.116E-06 alpha_mix =  0.700 |ddv_scf|^2 =  1.980E-12

      iter #   7 total cpu time :    17.2 secs   av.it.:   7.8
      thresh= 1.407E-07 alpha_mix =  0.700 |ddv_scf|^2 =  4.219E-15

     End of self-consistent calculation

     Convergence has been achieved 


     Representation #  3 modes #   3  4

     Self-consistent Calculation

      iter #   1 total cpu time :    17.5 secs   av.it.:   4.7
      thresh= 1.000E-02 alpha_mix =  0.700 |ddv_scf|^2 =  3.016E-07

      iter #   2 total cpu time :    17.8 secs   av.it.:   9.1
      thresh= 5.492E-05 alpha_mix =  0.700 |ddv_scf|^2 =  2.460E-08

      iter #   3 total cpu time :    18.0 secs   av.it.:   8.3
      thresh= 1.568E-05 alpha_mix =  0.700 |ddv_scf|^2 =  4.735E-10

      iter #   4 total cpu time :    18.3 secs   av.it.:   8.8
      thresh= 2.176E-06 alpha_mix =  0.700 |ddv_scf|^2 =  5.914E-12

      iter #   5 total cpu time :    18.6 secs   av.it.:   8.7
      thresh= 2.432E-07 alpha_mix =  0.700 |ddv_scf|^2 =  2.949E-14

     End of self-consistent calculation

     Convergence has been achieved 


     Representation #  4 modes #   5  6

     Self-consistent Calculation

      iter #   1 total cpu time :    18.8 secs   av.it.:   5.0
      thresh= 1.000E-02 alpha_mix =  0.700 |ddv_scf|^2 =  9.724E-07

      iter #   2 total cpu time :    19.1 secs   av.it.:   9.5
      thresh= 9.861E-05 alpha_mix =  0.700 |ddv_scf|^2 =  7.590E-08

      iter #   3 total cpu time :    19.4 secs   av.it.:   9.3
      thresh= 2.755E-05 alpha_mix =  0.700 |ddv_scf|^2 =  4.633E-09

      iter #   4 total cpu time :    19.7 secs   av.it.:   8.5
      thresh= 6.807E-06 alpha_mix =  0.700 |ddv_scf|^2 =  5.988E-12

      iter #   5 total cpu time :    20.0 secs   av.it.:   8.8
      thresh= 2.447E-07 alpha_mix =  0.700 |ddv_scf|^2 =  2.060E-14

     End of self-consistent calculation

     Convergence has been achieved 

     Number of q in the star =    4
     List of q in the star:
          1   0.500000000  -0.500000000   0.500000000
          2   0.500000000   0.500000000   0.500000000
          3  -0.500000000   0.500000000   0.500000000
          4   0.500000000   0.500000000  -0.500000000

     Diagonalizing the dynamical matrix

     q = (    0.500000000  -0.500000000   0.500000000 ) 

 **************************************************************************
     freq (    1) =       4.417227 [THz] =     147.342824 [cm-1]
     freq (    2) =       4.417227 [THz] =     147.342824 [cm-1]
     freq (    3) =      11.727330 [THz] =     391.181617 [cm-1]
     freq (    4) =      12.714250 [THz] =     424.101735 [cm-1]
     freq (    5) =      15.036273 [THz] =     501.556067 [cm-1]
     freq (    6) =      15.036273 [THz] =     501.556067 [cm-1]
 **************************************************************************

     Calculation of q =    0.0000000   0.5000000   0.0000000

   Info: using nr1, nr2, nr3 values from input

   Info: using nr1, nr2, nr3 values from input

     Parallelization info
     --------------------
     sticks:   dense  smooth     PW     G-vecs:    dense   smooth      PW
     Min          63      63     24                  682      682     161
     Max          64      64     25                  686      686     162
     Sum         253     253     97                 2733     2733     645



     bravais-lattice index     =            2
     lattice parameter (alat)  =      10.2200  a.u.
     unit-cell volume          =     266.8657 (a.u.)^3
     number of atoms/cell      =            2
     number of atomic types    =            1
     number of electrons       =         8.00
     number of Kohn-Sham states=            4
     kinetic-energy cutoff     =      18.0000  Ry
     charge density cutoff     =      72.0000  Ry
     Exchange-correlation      = SLA  PW   PBE  PBE ( 1  4  3  4 0 0)

     celldm(1)=  10.220000  celldm(2)=   0.000000  celldm(3)=   0.000000
     celldm(4)=   0.000000  celldm(5)=   0.000000  celldm(6)=   0.000000

     crystal axes: (cart. coord. in units of alat)
               a(1) = (  -0.500000   0.000000   0.500000 )  
               a(2) = (   0.000000   0.500000   0.500000 )  
               a(3) = (  -0.500000   0.500000   0.000000 )  

     reciprocal axes: (cart. coord. in units 2 pi/alat)
               b(1) = ( -1.000000 -1.000000  1.000000 )  
               b(2) = (  1.000000  1.000000  1.000000 )  
               b(3) = ( -1.000000  1.000000 -1.000000 )  


     PseudoPot. # 1 for Si read from file:
     /home/max/quantum_espresso/qe-6.1/pseudo/si_pbe_v1.uspp.F.UPF.txt
     MD5 check sum: a056efeee980c13900f22a371efd63c1
     Pseudo is Ultrasoft + core correction, Zval =  4.0
     Generated by new atomic code, or converted to UPF format
     Using radial grid of  899 points,  6 beta functions with: 
                l(1) =   0
                l(2) =   0
                l(3) =   1
                l(4) =   1
                l(5) =   2
                l(6) =   2
     Q(r) pseudized with  8 coefficients,  rinner =    0.900   0.900   0.900
                                                       0.900   0.900

     atomic species   valence    mass     pseudopotential
        Si             4.00    28.08600     Si( 1.00)

     48 Sym. Ops., with inversion, found



   Cartesian axes

     site n.     atom                  positions (alat units)
         1           Si  tau(   1) = (   0.0000000   0.0000000   0.0000000  )
         2           Si  tau(   2) = (   0.2500000   0.2500000   0.2500000  )

     number of k points=    80
                       cart. coord. in units 2pi/alat
        k(    1) = (  -0.1250000   0.1250000   0.1250000), wk =   0.0312500
        k(    2) = (  -0.1250000   0.6250000   0.1250000), wk =   0.0000000
        k(    3) = (  -0.3750000   0.3750000  -0.1250000), wk =   0.0625000
        k(    4) = (  -0.3750000   0.8750000  -0.1250000), wk =   0.0000000
        k(    5) = (   0.3750000  -0.3750000   0.6250000), wk =   0.0625000
        k(    6) = (   0.3750000   0.1250000   0.6250000), wk =   0.0000000
        k(    7) = (   0.1250000  -0.1250000   0.3750000), wk =   0.0625000
        k(    8) = (   0.1250000   0.3750000   0.3750000), wk =   0.0000000
        k(    9) = (  -0.1250000   0.6250000   0.1250000), wk =   0.0312500
        k(   10) = (  -0.1250000   1.1250000   0.1250000), wk =   0.0000000
        k(   11) = (   0.6250000  -0.1250000   0.8750000), wk =   0.0625000
        k(   12) = (   0.6250000   0.3750000   0.8750000), wk =   0.0000000
        k(   13) = (   0.3750000   0.1250000   0.6250000), wk =   0.0625000
        k(   14) = (   0.3750000   0.6250000   0.6250000), wk =   0.0000000
        k(   15) = (  -0.1250000  -0.8750000   0.1250000), wk =   0.0312500
        k(   16) = (  -0.1250000  -0.3750000   0.1250000), wk =   0.0000000
        k(   17) = (  -0.3750000   0.3750000   0.3750000), wk =   0.0312500
        k(   18) = (  -0.3750000   0.8750000   0.3750000), wk =   0.0000000
        k(   19) = (   0.3750000  -0.3750000   1.1250000), wk =   0.0625000
        k(   20) = (   0.3750000   0.1250000   1.1250000), wk =   0.0000000
        k(   21) = (  -0.1250000  -0.1250000   0.1250000), wk =   0.0312500
        k(   22) = (  -0.1250000   0.3750000   0.1250000), wk =   0.0000000
        k(   23) = (   0.1250000  -0.3750000   0.3750000), wk =   0.0625000
        k(   24) = (   0.1250000   0.1250000   0.3750000), wk =   0.0000000
        k(   25) = (   0.3750000  -0.1250000   0.3750000), wk =   0.0312500
        k(   26) = (   0.3750000   0.3750000   0.3750000), wk =   0.0000000
        k(   27) = (   0.3750000   0.1250000   0.3750000), wk =   0.0312500
        k(   28) = (   0.3750000   0.6250000   0.3750000), wk =   0.0000000
        k(   29) = (  -0.6250000   0.3750000  -0.3750000), wk =   0.0625000
        k(   30) = (  -0.6250000   0.8750000  -0.3750000), wk =   0.0000000
        k(   31) = (  -0.3750000   0.6250000  -0.3750000), wk =   0.0312500
        k(   32) = (  -0.3750000   1.1250000  -0.3750000), wk =   0.0000000
        k(   33) = (  -0.3750000  -0.6250000  -0.3750000), wk =   0.0312500
        k(   34) = (  -0.3750000  -0.1250000  -0.3750000), wk =   0.0000000
        k(   35) = (  -0.3750000   0.1250000  -0.1250000), wk =   0.0625000
        k(   36) = (  -0.3750000   0.6250000  -0.1250000), wk =   0.0000000
        k(   37) = (  -0.1250000   0.3750000  -0.1250000), wk =   0.0312500
        k(   38) = (  -0.1250000   0.8750000  -0.1250000), wk =   0.0000000
        k(   39) = (  -0.1250000  -0.3750000  -0.1250000), wk =   0.0312500
        k(   40) = (  -0.1250000   0.1250000  -0.1250000), wk =   0.0000000
        k(   41) = (  -0.1250000  -0.6250000   0.1250000), wk =   0.0312500
        k(   42) = (  -0.1250000  -0.1250000   0.1250000), wk =   0.0000000
        k(   43) = (   0.6250000  -0.1250000  -0.1250000), wk =   0.0625000
        k(   44) = (   0.6250000   0.3750000  -0.1250000), wk =   0.0000000
        k(   45) = (   0.6250000   0.1250000   0.1250000), wk =   0.0625000
        k(   46) = (   0.6250000   0.6250000   0.1250000), wk =   0.0000000
        k(   47) = (  -0.8750000   0.1250000  -0.6250000), wk =   0.0625000
        k(   48) = (  -0.8750000   0.6250000  -0.6250000), wk =   0.0000000
        k(   49) = (  -0.1250000   0.6250000  -0.8750000), wk =   0.0625000
        k(   50) = (  -0.1250000   1.1250000  -0.8750000), wk =   0.0000000
        k(   51) = (  -0.1250000   0.8750000  -0.6250000), wk =   0.0625000
        k(   52) = (  -0.1250000   1.3750000  -0.6250000), wk =   0.0000000
        k(   53) = (  -0.1250000  -0.8750000  -0.6250000), wk =   0.0625000
        k(   54) = (  -0.1250000  -0.3750000  -0.6250000), wk =   0.0000000
        k(   55) = (   0.8750000  -0.6250000   0.1250000), wk =   0.0625000
        k(   56) = (   0.8750000  -0.1250000   0.1250000), wk =   0.0000000
        k(   57) = (  -0.6250000  -0.1250000  -0.3750000), wk =   0.0625000
        k(   58) = (  -0.6250000   0.3750000  -0.3750000), wk =   0.0000000
        k(   59) = (   0.1250000   0.3750000  -0.6250000), wk =   0.0625000
        k(   60) = (   0.1250000   0.8750000  -0.6250000), wk =   0.0000000
        k(   61) = (   0.1250000   0.6250000  -0.3750000), wk =   0.0625000
        k(   62) = (   0.1250000   1.1250000  -0.3750000), wk =   0.0000000
        k(   63) = (   0.1250000  -0.6250000  -0.3750000), wk =   0.0625000
        k(   64) = (   0.1250000  -0.1250000  -0.3750000), wk =   0.0000000
        k(   65) = (   0.6250000  -0.3750000  -0.1250000), wk =   0.0625000
        k(   66) = (   0.6250000   0.1250000  -0.1250000), wk =   0.0000000
        k(   67) = (  -0.1250000   0.8750000   0.1250000), wk =   0.0312500
        k(   68) = (  -0.1250000   1.3750000   0.1250000), wk =   0.0000000
        k(   69) = (  -0.8750000  -0.1250000  -0.1250000), wk =   0.0625000
        k(   70) = (  -0.8750000   0.3750000  -0.1250000), wk =   0.0000000
        k(   71) = (  -0.8750000   0.1250000   0.1250000), wk =   0.0625000
        k(   72) = (  -0.8750000   0.6250000   0.1250000), wk =   0.0000000
        k(   73) = (  -0.3750000  -0.3750000   0.3750000), wk =   0.0312500
        k(   74) = (  -0.3750000   0.1250000   0.3750000), wk =   0.0000000
        k(   75) = (  -1.1250000   0.3750000  -0.3750000), wk =   0.0625000
        k(   76) = (  -1.1250000   0.8750000  -0.3750000), wk =   0.0000000
        k(   77) = (  -0.3750000   1.1250000  -0.3750000), wk =   0.0312500
        k(   78) = (  -0.3750000   1.6250000  -0.3750000), wk =   0.0000000
        k(   79) = (  -0.3750000  -1.1250000  -0.3750000), wk =   0.0312500
        k(   80) = (  -0.3750000  -0.6250000  -0.3750000), wk =   0.0000000

     Dense  grid:     2733 G-vectors     FFT dimensions: (  20,  20,  20)

     Estimated max dynamical RAM per process >       0.32MB

     Estimated total allocated dynamical RAM >       1.29MB

     Check: negative/imaginary core charge=   -0.000006    0.000000

     The potential is recalculated from file :
     ./_ph0/silicon.10.22.save/charge-density.dat

     Starting wfc are    8 atomic wfcs

     Band Structure Calculation
     Davidson diagonalization with overlap

     ethr =  1.25E-10,  avg # of iterations = 11.6

     total cpu time spent up to now is        1.9 secs

     End of band structure calculation

          k =-0.1250 0.1250 0.1250 (   335 PWs)   bands (ev):

    -5.5088   4.7249   6.0342   6.0342

          k =-0.1250 0.6250 0.1250 (   337 PWs)   bands (ev):

    -3.9056   1.3694   3.6305   4.0942

          k =-0.3750 0.3750-0.1250 (   341 PWs)   bands (ev):

    -4.4530   1.6776   3.9964   5.5449

          k =-0.3750 0.8750-0.1250 (   347 PWs)   bands (ev):

    -2.2119  -0.6393   2.2257   3.3353

          k = 0.3750-0.3750 0.6250 (   343 PWs)   bands (ev):

    -3.2710  -0.4671   4.0317   4.7477

          k = 0.3750 0.1250 0.6250 (   344 PWs)   bands (ev):

    -3.4754   0.4555   2.9771   4.3770

          k = 0.1250-0.1250 0.3750 (   338 PWs)   bands (ev):

    -4.9666   3.0924   4.9927   5.0771

          k = 0.1250 0.3750 0.3750 (   341 PWs)   bands (ev):

    -4.4530   1.6776   3.9964   5.5449

          k =-0.1250 0.6250 0.1250 (   337 PWs)   bands (ev):

    -3.9056   1.3694   3.6305   4.0942

          k =-0.1250 1.1250 0.1250 (   344 PWs)   bands (ev):

    -2.3914  -0.5351   2.8551   3.6149

          k = 0.6250-0.1250 0.8750 (   347 PWs)   bands (ev):

    -2.2119  -0.6393   2.2257   3.3353

          k = 0.6250 0.3750 0.8750 (   344 PWs)   bands (ev):

    -3.4754   0.4555   2.9771   4.3770

          k = 0.3750 0.1250 0.6250 (   344 PWs)   bands (ev):

    -3.4754   0.4555   2.9771   4.3770

          k = 0.3750 0.6250 0.6250 (   343 PWs)   bands (ev):

    -3.2710  -0.4671   4.0317   4.7477

          k =-0.1250-0.8750 0.1250 (   344 PWs)   bands (ev):

    -2.3914  -0.5351   2.8551   3.6149

          k =-0.1250-0.3750 0.1250 (   338 PWs)   bands (ev):

    -4.9666   3.0924   4.9927   5.0771

          k =-0.3750 0.3750 0.3750 (   350 PWs)   bands (ev):

    -4.0054   0.3404   5.2286   5.2286

          k =-0.3750 0.8750 0.3750 (   347 PWs)   bands (ev):

    -2.7616  -0.3522   2.2974   4.4197

          k = 0.3750-0.3750 1.1250 (   347 PWs)   bands (ev):

    -2.7616  -0.3522   2.2974   4.4197

          k = 0.3750 0.1250 1.1250 (   347 PWs)   bands (ev):

    -2.2119  -0.6393   2.2257   3.3353

          k =-0.1250-0.1250 0.1250 (   335 PWs)   bands (ev):

    -5.5088   4.7249   6.0342   6.0342

          k =-0.1250 0.3750 0.1250 (   338 PWs)   bands (ev):

    -4.9666   3.0924   4.9927   5.0771

          k = 0.1250-0.3750 0.3750 (   341 PWs)   bands (ev):

    -4.4530   1.6776   3.9964   5.5449

          k = 0.1250 0.1250 0.3750 (   338 PWs)   bands (ev):

    -4.9666   3.0924   4.9927   5.0771

          k = 0.3750-0.1250 0.3750 (   341 PWs)   bands (ev):

    -4.4530   1.6776   3.9964   5.5449

          k = 0.3750 0.3750 0.3750 (   350 PWs)   bands (ev):

    -4.0054   0.3404   5.2286   5.2286

          k = 0.3750 0.1250 0.3750 (   341 PWs)   bands (ev):

    -4.4530   1.6776   3.9964   5.5449

          k = 0.3750 0.6250 0.3750 (   343 PWs)   bands (ev):

    -3.2710  -0.4671   4.0317   4.7477

          k =-0.6250 0.3750-0.3750 (   343 PWs)   bands (ev):

    -3.2710  -0.4671   4.0317   4.7477

          k =-0.6250 0.8750-0.3750 (   344 PWs)   bands (ev):

    -3.4754   0.4555   2.9771   4.3770

          k =-0.3750 0.6250-0.3750 (   343 PWs)   bands (ev):

    -3.2710  -0.4671   4.0317   4.7477

          k =-0.3750 1.1250-0.3750 (   347 PWs)   bands (ev):

    -2.7616  -0.3522   2.2974   4.4197

          k =-0.3750-0.6250-0.3750 (   343 PWs)   bands (ev):

    -3.2710  -0.4671   4.0317   4.7477

          k =-0.3750-0.1250-0.3750 (   341 PWs)   bands (ev):

    -4.4530   1.6776   3.9964   5.5449

          k =-0.3750 0.1250-0.1250 (   338 PWs)   bands (ev):

    -4.9666   3.0924   4.9927   5.0771

          k =-0.3750 0.6250-0.1250 (   344 PWs)   bands (ev):

    -3.4754   0.4555   2.9771   4.3770

          k =-0.1250 0.3750-0.1250 (   338 PWs)   bands (ev):

    -4.9666   3.0924   4.9927   5.0771

          k =-0.1250 0.8750-0.1250 (   344 PWs)   bands (ev):

    -2.3914  -0.5351   2.8551   3.6149

          k =-0.1250-0.3750-0.1250 (   338 PWs)   bands (ev):

    -4.9666   3.0924   4.9927   5.0771

          k =-0.1250 0.1250-0.1250 (   335 PWs)   bands (ev):

    -5.5088   4.7249   6.0342   6.0342

          k =-0.1250-0.6250 0.1250 (   337 PWs)   bands (ev):

    -3.9056   1.3694   3.6305   4.0942

          k =-0.1250-0.1250 0.1250 (   335 PWs)   bands (ev):

    -5.5088   4.7249   6.0342   6.0342

          k = 0.6250-0.1250-0.1250 (   337 PWs)   bands (ev):

    -3.9056   1.3694   3.6305   4.0942

          k = 0.6250 0.3750-0.1250 (   344 PWs)   bands (ev):

    -3.4754   0.4555   2.9771   4.3770

          k = 0.6250 0.1250 0.1250 (   337 PWs)   bands (ev):

    -3.9056   1.3694   3.6305   4.0942

          k = 0.6250 0.6250 0.1250 (   347 PWs)   bands (ev):

    -2.7616  -0.3522   2.2974   4.4197

          k =-0.8750 0.1250-0.6250 (   347 PWs)   bands (ev):

    -2.2119  -0.6393   2.2257   3.3353

          k =-0.8750 0.6250-0.6250 (   341 PWs)   bands (ev):

    -4.4530   1.6776   3.9964   5.5449

          k =-0.1250 0.6250-0.8750 (   347 PWs)   bands (ev):

    -2.2119  -0.6393   2.2257   3.3353

          k =-0.1250 1.1250-0.8750 (   344 PWs)   bands (ev):

    -2.3914  -0.5351   2.8551   3.6149

          k =-0.1250 0.8750-0.6250 (   347 PWs)   bands (ev):

    -2.2119  -0.6393   2.2257   3.3353

          k =-0.1250 1.3750-0.6250 (   347 PWs)   bands (ev):

    -2.7616  -0.3522   2.2974   4.4197

          k =-0.1250-0.8750-0.6250 (   347 PWs)   bands (ev):

    -2.2119  -0.6393   2.2257   3.3353

          k =-0.1250-0.3750-0.6250 (   344 PWs)   bands (ev):

    -3.4754   0.4555   2.9771   4.3770

          k = 0.8750-0.6250 0.1250 (   347 PWs)   bands (ev):

    -2.2119  -0.6393   2.2257   3.3353

          k = 0.8750-0.1250 0.1250 (   344 PWs)   bands (ev):

    -2.3914  -0.5351   2.8551   3.6149

          k =-0.6250-0.1250-0.3750 (   344 PWs)   bands (ev):

    -3.4754   0.4555   2.9771   4.3770

          k =-0.6250 0.3750-0.3750 (   343 PWs)   bands (ev):

    -3.2710  -0.4671   4.0317   4.7477

          k = 0.1250 0.3750-0.6250 (   344 PWs)   bands (ev):

    -3.4754   0.4555   2.9771   4.3770

          k = 0.1250 0.8750-0.6250 (   347 PWs)   bands (ev):

    -2.2119  -0.6393   2.2257   3.3353

          k = 0.1250 0.6250-0.3750 (   344 PWs)   bands (ev):

    -3.4754   0.4555   2.9771   4.3770

          k = 0.1250 1.1250-0.3750 (   347 PWs)   bands (ev):

    -2.2119  -0.6393   2.2257   3.3353

          k = 0.1250-0.6250-0.3750 (   344 PWs)   bands (ev):

    -3.4754   0.4555   2.9771   4.3770

          k = 0.1250-0.1250-0.3750 (   338 PWs)   bands (ev):

    -4.9666   3.0924   4.9927   5.0771

          k = 0.6250-0.3750-0.1250 (   344 PWs)   bands (ev):

    -3.4754   0.4555   2.9771   4.3770

          k = 0.6250 0.1250-0.1250 (   337 PWs)   bands (ev):

    -3.9056   1.3694   3.6305   4.0942

          k =-0.1250 0.8750 0.1250 (   344 PWs)   bands (ev):

    -2.3914  -0.5351   2.8551   3.6149

          k =-0.1250 1.3750 0.1250 (   337 PWs)   bands (ev):

    -3.9056   1.3694   3.6305   4.0942

          k =-0.8750-0.1250-0.1250 (   344 PWs)   bands (ev):

    -2.3914  -0.5351   2.8551   3.6149

          k =-0.8750 0.3750-0.1250 (   347 PWs)   bands (ev):

    -2.2119  -0.6393   2.2257   3.3353

          k =-0.8750 0.1250 0.1250 (   344 PWs)   bands (ev):

    -2.3914  -0.5351   2.8551   3.6149

          k =-0.8750 0.6250 0.1250 (   347 PWs)   bands (ev):

    -2.2119  -0.6393   2.2257   3.3353

          k =-0.3750-0.3750 0.3750 (   350 PWs)   bands (ev):

    -4.0054   0.3404   5.2286   5.2286

          k =-0.3750 0.1250 0.3750 (   341 PWs)   bands (ev):

    -4.4530   1.6776   3.9964   5.5449

          k =-1.1250 0.3750-0.3750 (   347 PWs)   bands (ev):

    -2.7616  -0.3522   2.2974   4.4197

          k =-1.1250 0.8750-0.3750 (   337 PWs)   bands (ev):

    -3.9056   1.3694   3.6305   4.0942

          k =-0.3750 1.1250-0.3750 (   347 PWs)   bands (ev):

    -2.7616  -0.3522   2.2974   4.4197

          k =-0.3750 1.6250-0.3750 (   350 PWs)   bands (ev):

    -4.0054   0.3404   5.2286   5.2286

          k =-0.3750-1.1250-0.3750 (   347 PWs)   bands (ev):

    -2.7616  -0.3522   2.2974   4.4197

          k =-0.3750-0.6250-0.3750 (   343 PWs)   bands (ev):

    -3.2710  -0.4671   4.0317   4.7477

     highest occupied level (ev):     6.0342

     Writing output data file silicon.10.22.save

                                                                                

     bravais-lattice index     =            2
     lattice parameter (alat)  =      10.2200  a.u.
     unit-cell volume          =     266.8657 (a.u.)^3
     number of atoms/cell      =            2
     number of atomic types    =            1
     kinetic-energy cut-off    =      18.0000  Ry
     charge density cut-off    =      72.0000  Ry
     convergence threshold     =      1.0E-12
     beta                      =       0.7000
     number of iterations used =            4
     Exchange-correlation      = SLA  PW   PBE  PBE ( 1  4  3  4 0 0)


     celldm(1)=   10.22000  celldm(2)=    0.00000  celldm(3)=    0.00000
     celldm(4)=    0.00000  celldm(5)=    0.00000  celldm(6)=    0.00000

     crystal axes: (cart. coord. in units of alat)
               a(1) = ( -0.5000  0.0000  0.5000 )  
               a(2) = (  0.0000  0.5000  0.5000 )  
               a(3) = ( -0.5000  0.5000  0.0000 )  

     reciprocal axes: (cart. coord. in units 2 pi/alat)
               b(1) = ( -1.0000 -1.0000  1.0000 )  
               b(2) = (  1.0000  1.0000  1.0000 )  
               b(3) = ( -1.0000  1.0000 -1.0000 )  


     Atoms inside the unit cell: 

     Cartesian axes

     site n.  atom      mass           positions (alat units)
        1     Si  28.0860   tau(    1) = (    0.00000    0.00000    0.00000  )
        2     Si  28.0860   tau(    2) = (    0.25000    0.25000    0.25000  )

     Computing dynamical matrix for 
                    q = (   0.0000000   0.5000000   0.0000000 )

      8 Sym.Ops. (no q -> -q+G )


     G cutoff =  190.4910  (    683 G-vectors)     FFT grid: ( 20, 20, 20)
     number of k points=    80

     PseudoPot. # 1 for Si read from file:
     /home/max/quantum_espresso/qe-6.1/pseudo/si_pbe_v1.uspp.F.UPF.txt
     MD5 check sum: a056efeee980c13900f22a371efd63c1
     Pseudo is Ultrasoft + core correction, Zval =  4.0
     Generated by new atomic code, or converted to UPF format
     Using radial grid of  899 points,  6 beta functions with: 
                l(1) =   0
                l(2) =   0
                l(3) =   1
                l(4) =   1
                l(5) =   2
                l(6) =   2
     Q(r) pseudized with  8 coefficients,  rinner =    0.900   0.900   0.900
                                                       0.900   0.900

     Mode symmetry, C_4v (4mm)  point group:


     Atomic displacements:
     There are   4 irreducible representations

     Representation     1      1 modes -A_1  G_1 D_1  To be done

     Representation     2      1 modes -B_2  G_4 D_2'  To be done

     Representation     3      2 modes -E    G_5 D_5  To be done

     Representation     4      2 modes -E    G_5 D_5  To be done



     Alpha used in Ewald sum =   0.7000
     PHONON       :    19.83s CPU        20.86s WALL



     Representation #  1 mode #   1

     Self-consistent Calculation

      iter #   1 total cpu time :    21.0 secs   av.it.:   5.7
      thresh= 1.000E-02 alpha_mix =  0.700 |ddv_scf|^2 =  3.066E-03

      iter #   2 total cpu time :    21.2 secs   av.it.:   7.6
      thresh= 5.537E-03 alpha_mix =  0.700 |ddv_scf|^2 =  3.979E-02

      iter #   3 total cpu time :    21.3 secs   av.it.:   6.7
      thresh= 1.000E-02 alpha_mix =  0.700 |ddv_scf|^2 =  1.345E-07

      iter #   4 total cpu time :    21.5 secs   av.it.:   8.1
      thresh= 3.667E-05 alpha_mix =  0.700 |ddv_scf|^2 =  1.202E-08

      iter #   5 total cpu time :    21.7 secs   av.it.:   7.7
      thresh= 1.096E-05 alpha_mix =  0.700 |ddv_scf|^2 =  7.569E-10

      iter #   6 total cpu time :    21.9 secs   av.it.:   7.8
      thresh= 2.751E-06 alpha_mix =  0.700 |ddv_scf|^2 =  2.639E-12

      iter #   7 total cpu time :    22.0 secs   av.it.:   8.0
      thresh= 1.624E-07 alpha_mix =  0.700 |ddv_scf|^2 =  5.157E-13

     End of self-consistent calculation

     Convergence has been achieved 


     Representation #  2 mode #   2

     Self-consistent Calculation

      iter #   1 total cpu time :    22.2 secs   av.it.:   4.9
      thresh= 1.000E-02 alpha_mix =  0.700 |ddv_scf|^2 =  5.418E-06

      iter #   2 total cpu time :    22.4 secs   av.it.:   8.6
      thresh= 2.328E-04 alpha_mix =  0.700 |ddv_scf|^2 =  1.268E-06

      iter #   3 total cpu time :    22.5 secs   av.it.:   8.5
      thresh= 1.126E-04 alpha_mix =  0.700 |ddv_scf|^2 =  3.519E-08

      iter #   4 total cpu time :    22.7 secs   av.it.:   8.1
      thresh= 1.876E-05 alpha_mix =  0.700 |ddv_scf|^2 =  5.634E-10

      iter #   5 total cpu time :    22.9 secs   av.it.:   8.6
      thresh= 2.374E-06 alpha_mix =  0.700 |ddv_scf|^2 =  6.137E-12

      iter #   6 total cpu time :    23.1 secs   av.it.:   7.8
      thresh= 2.477E-07 alpha_mix =  0.700 |ddv_scf|^2 =  6.098E-14

     End of self-consistent calculation

     Convergence has been achieved 


     Representation #  3 modes #   3  4

     Self-consistent Calculation

      iter #   1 total cpu time :    23.4 secs   av.it.:   5.0
      thresh= 1.000E-02 alpha_mix =  0.700 |ddv_scf|^2 =  1.005E-06

      iter #   2 total cpu time :    23.7 secs   av.it.:   9.7
      thresh= 1.002E-04 alpha_mix =  0.700 |ddv_scf|^2 =  1.255E-07

      iter #   3 total cpu time :    24.1 secs   av.it.:   9.4
      thresh= 3.543E-05 alpha_mix =  0.700 |ddv_scf|^2 =  5.874E-09

      iter #   4 total cpu time :    24.5 secs   av.it.:   8.8
      thresh= 7.664E-06 alpha_mix =  0.700 |ddv_scf|^2 =  8.665E-12

      iter #   5 total cpu time :    24.9 secs   av.it.:   9.0
      thresh= 2.944E-07 alpha_mix =  0.700 |ddv_scf|^2 =  2.663E-13

     End of self-consistent calculation

     Convergence has been achieved 


     Representation #  4 modes #   5  6

     Self-consistent Calculation

      iter #   1 total cpu time :    25.2 secs   av.it.:   5.0
      thresh= 1.000E-02 alpha_mix =  0.700 |ddv_scf|^2 =  9.245E-07

      iter #   2 total cpu time :    25.5 secs   av.it.:   9.7
      thresh= 9.615E-05 alpha_mix =  0.700 |ddv_scf|^2 =  1.166E-07

      iter #   3 total cpu time :    25.9 secs   av.it.:   9.4
      thresh= 3.414E-05 alpha_mix =  0.700 |ddv_scf|^2 =  6.179E-09

      iter #   4 total cpu time :    26.3 secs   av.it.:   8.9
      thresh= 7.861E-06 alpha_mix =  0.700 |ddv_scf|^2 =  1.359E-11

      iter #   5 total cpu time :    26.7 secs   av.it.:   9.1
      thresh= 3.686E-07 alpha_mix =  0.700 |ddv_scf|^2 =  3.974E-14

     End of self-consistent calculation

     Convergence has been achieved 

     Number of q in the star =    6
     List of q in the star:
          1   0.000000000   0.500000000   0.000000000
          2   0.000000000  -0.500000000   0.000000000
          3   0.500000000   0.000000000   0.000000000
          4   0.000000000   0.000000000   0.500000000
          5   0.000000000   0.000000000  -0.500000000
          6  -0.500000000   0.000000000   0.000000000

     Diagonalizing the dynamical matrix

     q = (    0.000000000   0.500000000   0.000000000 ) 

 **************************************************************************
     freq (    1) =       4.130771 [THz] =     137.787687 [cm-1]
     freq (    2) =       4.130771 [THz] =     137.787687 [cm-1]
     freq (    3) =       7.394217 [THz] =     246.644547 [cm-1]
     freq (    4) =      14.412586 [THz] =     480.752117 [cm-1]
     freq (    5) =      14.412586 [THz] =     480.752117 [cm-1]
     freq (    6) =      14.923858 [THz] =     497.806303 [cm-1]
 **************************************************************************

     Mode symmetry, C_4v (4mm)  point group:

     freq (  1 -  2) =        137.8  [cm-1]   --> E    G_5 D_5       
     freq (  3 -  3) =        246.6  [cm-1]   --> A_1  G_1 D_1       
     freq (  4 -  5) =        480.8  [cm-1]   --> E    G_5 D_5       
     freq (  6 -  6) =        497.8  [cm-1]   --> B_2  G_4 D_2'      

     Calculation of q =    0.7500000  -0.2500000   0.7500000

   Info: using nr1, nr2, nr3 values from input

   Info: using nr1, nr2, nr3 values from input

     Parallelization info
     --------------------
     sticks:   dense  smooth     PW     G-vecs:    dense   smooth      PW
     Min          63      63     30                  682      682     216
     Max          64      64     31                  686      686     218
     Sum         253     253    121                 2733     2733     869



     bravais-lattice index     =            2
     lattice parameter (alat)  =      10.2200  a.u.
     unit-cell volume          =     266.8657 (a.u.)^3
     number of atoms/cell      =            2
     number of atomic types    =            1
     number of electrons       =         8.00
     number of Kohn-Sham states=            4
     kinetic-energy cutoff     =      18.0000  Ry
     charge density cutoff     =      72.0000  Ry
     Exchange-correlation      = SLA  PW   PBE  PBE ( 1  4  3  4 0 0)

     celldm(1)=  10.220000  celldm(2)=   0.000000  celldm(3)=   0.000000
     celldm(4)=   0.000000  celldm(5)=   0.000000  celldm(6)=   0.000000

     crystal axes: (cart. coord. in units of alat)
               a(1) = (  -0.500000   0.000000   0.500000 )  
               a(2) = (   0.000000   0.500000   0.500000 )  
               a(3) = (  -0.500000   0.500000   0.000000 )  

     reciprocal axes: (cart. coord. in units 2 pi/alat)
               b(1) = ( -1.000000 -1.000000  1.000000 )  
               b(2) = (  1.000000  1.000000  1.000000 )  
               b(3) = ( -1.000000  1.000000 -1.000000 )  


     PseudoPot. # 1 for Si read from file:
     /home/max/quantum_espresso/qe-6.1/pseudo/si_pbe_v1.uspp.F.UPF.txt
     MD5 check sum: a056efeee980c13900f22a371efd63c1
     Pseudo is Ultrasoft + core correction, Zval =  4.0
     Generated by new atomic code, or converted to UPF format
     Using radial grid of  899 points,  6 beta functions with: 
                l(1) =   0
                l(2) =   0
                l(3) =   1
                l(4) =   1
                l(5) =   2
                l(6) =   2
     Q(r) pseudized with  8 coefficients,  rinner =    0.900   0.900   0.900
                                                       0.900   0.900

     atomic species   valence    mass     pseudopotential
        Si             4.00    28.08600     Si( 1.00)

     48 Sym. Ops., with inversion, found



   Cartesian axes

     site n.     atom                  positions (alat units)
         1           Si  tau(   1) = (   0.0000000   0.0000000   0.0000000  )
         2           Si  tau(   2) = (   0.2500000   0.2500000   0.2500000  )

     number of k points=   288

     Number of k-points >= 100: set verbosity='high' to print them.

     Dense  grid:     2733 G-vectors     FFT dimensions: (  20,  20,  20)

     Estimated max dynamical RAM per process >       0.32MB

     Estimated total allocated dynamical RAM >       1.29MB

     Check: negative/imaginary core charge=   -0.000006    0.000000

     The potential is recalculated from file :
     ./_ph0/silicon.10.22.save/charge-density.dat

     Starting wfc are    8 atomic wfcs

     Band Structure Calculation
     Davidson diagonalization with overlap

     ethr =  1.25E-10,  avg # of iterations = 11.5

     total cpu time spent up to now is        3.7 secs

     End of band structure calculation

     Number of k-points >= 100: set verbosity='high' to print the bands.

     highest occupied level (ev):     6.0342

     Writing output data file silicon.10.22.save

                                                                                

     bravais-lattice index     =            2
     lattice parameter (alat)  =      10.2200  a.u.
     unit-cell volume          =     266.8657 (a.u.)^3
     number of atoms/cell      =            2
     number of atomic types    =            1
     kinetic-energy cut-off    =      18.0000  Ry
     charge density cut-off    =      72.0000  Ry
     convergence threshold     =      1.0E-12
     beta                      =       0.7000
     number of iterations used =            4
     Exchange-correlation      = SLA  PW   PBE  PBE ( 1  4  3  4 0 0)


     celldm(1)=   10.22000  celldm(2)=    0.00000  celldm(3)=    0.00000
     celldm(4)=    0.00000  celldm(5)=    0.00000  celldm(6)=    0.00000

     crystal axes: (cart. coord. in units of alat)
               a(1) = ( -0.5000  0.0000  0.5000 )  
               a(2) = (  0.0000  0.5000  0.5000 )  
               a(3) = ( -0.5000  0.5000  0.0000 )  

     reciprocal axes: (cart. coord. in units 2 pi/alat)
               b(1) = ( -1.0000 -1.0000  1.0000 )  
               b(2) = (  1.0000  1.0000  1.0000 )  
               b(3) = ( -1.0000  1.0000 -1.0000 )  


     Atoms inside the unit cell: 

     Cartesian axes

     site n.  atom      mass           positions (alat units)
        1     Si  28.0860   tau(    1) = (    0.00000    0.00000    0.00000  )
        2     Si  28.0860   tau(    2) = (    0.25000    0.25000    0.25000  )

     Computing dynamical matrix for 
                    q = (   0.7500000  -0.2500000   0.7500000 )

      2 Sym.Ops. (no q -> -q+G )


     G cutoff =  190.4910  (    683 G-vectors)     FFT grid: ( 20, 20, 20)
     number of k points=   288

     PseudoPot. # 1 for Si read from file:
     /home/max/quantum_espresso/qe-6.1/pseudo/si_pbe_v1.uspp.F.UPF.txt
     MD5 check sum: a056efeee980c13900f22a371efd63c1
     Pseudo is Ultrasoft + core correction, Zval =  4.0
     Generated by new atomic code, or converted to UPF format
     Using radial grid of  899 points,  6 beta functions with: 
                l(1) =   0
                l(2) =   0
                l(3) =   1
                l(4) =   1
                l(5) =   2
                l(6) =   2
     Q(r) pseudized with  8 coefficients,  rinner =    0.900   0.900   0.900
                                                       0.900   0.900

     Mode symmetry, C_s (m)     point group:


     Atomic displacements:
     There are   6 irreducible representations

     Representation     1      1 modes -A'  To be done

     Representation     2      1 modes -A'  To be done

     Representation     3      1 modes -A'  To be done

     Representation     4      1 modes -A'  To be done

     Representation     5      1 modes -A''  To be done

     Representation     6      1 modes -A''  To be done



     Alpha used in Ewald sum =   0.7000
     PHONON       :    27.87s CPU        29.21s WALL



     Representation #  1 mode #   1

     Self-consistent Calculation

      iter #   1 total cpu time :    29.7 secs   av.it.:   5.3
      thresh= 1.000E-02 alpha_mix =  0.700 |ddv_scf|^2 =  6.282E-05

      iter #   2 total cpu time :    30.4 secs   av.it.:   8.8
      thresh= 7.926E-04 alpha_mix =  0.700 |ddv_scf|^2 =  1.618E-04

      iter #   3 total cpu time :    30.9 secs   av.it.:   7.5
      thresh= 1.272E-03 alpha_mix =  0.700 |ddv_scf|^2 =  1.153E-06

      iter #   4 total cpu time :    31.6 secs   av.it.:   8.3
      thresh= 1.074E-04 alpha_mix =  0.700 |ddv_scf|^2 =  5.132E-08

      iter #   5 total cpu time :    32.2 secs   av.it.:   8.4
      thresh= 2.265E-05 alpha_mix =  0.700 |ddv_scf|^2 =  6.989E-09

      iter #   6 total cpu time :    32.8 secs   av.it.:   8.5
      thresh= 8.360E-06 alpha_mix =  0.700 |ddv_scf|^2 =  6.909E-11

      iter #   7 total cpu time :    33.5 secs   av.it.:   8.7
      thresh= 8.312E-07 alpha_mix =  0.700 |ddv_scf|^2 =  2.348E-12

      iter #   8 total cpu time :    34.1 secs   av.it.:   8.6
      thresh= 1.532E-07 alpha_mix =  0.700 |ddv_scf|^2 =  1.543E-13

     End of self-consistent calculation

     Convergence has been achieved 


     Representation #  2 mode #   2

     Self-consistent Calculation

      iter #   1 total cpu time :    34.6 secs   av.it.:   5.4
      thresh= 1.000E-02 alpha_mix =  0.700 |ddv_scf|^2 =  1.127E-04

      iter #   2 total cpu time :    35.3 secs   av.it.:   8.7
      thresh= 1.061E-03 alpha_mix =  0.700 |ddv_scf|^2 =  3.177E-04

      iter #   3 total cpu time :    35.8 secs   av.it.:   7.4
      thresh= 1.782E-03 alpha_mix =  0.700 |ddv_scf|^2 =  7.624E-07

      iter #   4 total cpu time :    36.5 secs   av.it.:   8.5
      thresh= 8.732E-05 alpha_mix =  0.700 |ddv_scf|^2 =  5.138E-08

      iter #   5 total cpu time :    37.1 secs   av.it.:   8.2
      thresh= 2.267E-05 alpha_mix =  0.700 |ddv_scf|^2 =  9.402E-09

      iter #   6 total cpu time :    37.7 secs   av.it.:   8.4
      thresh= 9.696E-06 alpha_mix =  0.700 |ddv_scf|^2 =  7.293E-11

      iter #   7 total cpu time :    38.4 secs   av.it.:   8.7
      thresh= 8.540E-07 alpha_mix =  0.700 |ddv_scf|^2 =  2.255E-12

      iter #   8 total cpu time :    39.0 secs   av.it.:   8.7
      thresh= 1.502E-07 alpha_mix =  0.700 |ddv_scf|^2 =  5.577E-13

     End of self-consistent calculation

     Convergence has been achieved 


     Representation #  3 mode #   3

     Self-consistent Calculation

      iter #   1 total cpu time :    39.5 secs   av.it.:   5.3
      thresh= 1.000E-02 alpha_mix =  0.700 |ddv_scf|^2 =  8.849E-05

      iter #   2 total cpu time :    40.2 secs   av.it.:   8.7
      thresh= 9.407E-04 alpha_mix =  0.700 |ddv_scf|^2 =  2.342E-04

      iter #   3 total cpu time :    40.7 secs   av.it.:   7.4
      thresh= 1.530E-03 alpha_mix =  0.700 |ddv_scf|^2 =  1.313E-06

      iter #   4 total cpu time :    41.4 secs   av.it.:   8.2
      thresh= 1.146E-04 alpha_mix =  0.700 |ddv_scf|^2 =  5.255E-08

      iter #   5 total cpu time :    42.0 secs   av.it.:   8.4
      thresh= 2.292E-05 alpha_mix =  0.700 |ddv_scf|^2 =  9.413E-09

      iter #   6 total cpu time :    42.6 secs   av.it.:   8.4
      thresh= 9.702E-06 alpha_mix =  0.700 |ddv_scf|^2 =  4.427E-11

      iter #   7 total cpu time :    43.3 secs   av.it.:   8.6
      thresh= 6.653E-07 alpha_mix =  0.700 |ddv_scf|^2 =  1.517E-12

      iter #   8 total cpu time :    43.9 secs   av.it.:   8.8
      thresh= 1.232E-07 alpha_mix =  0.700 |ddv_scf|^2 =  2.648E-13

     End of self-consistent calculation

     Convergence has been achieved 


     Representation #  4 mode #   4

     Self-consistent Calculation

      iter #   1 total cpu time :    44.4 secs   av.it.:   5.2
      thresh= 1.000E-02 alpha_mix =  0.700 |ddv_scf|^2 =  3.868E-05

      iter #   2 total cpu time :    45.1 secs   av.it.:   8.9
[...]
        k(   59) = (  -0.8750000   0.1250000  -0.1250000), wk =   0.0625000
        k(   60) = (  -1.3750000  -0.8750000  -0.1250000), wk =   0.0000000
        k(   61) = (  -1.1250000   0.3750000  -0.3750000), wk =   0.0625000
        k(   62) = (  -1.6250000  -0.6250000  -0.3750000), wk =   0.0000000
        k(   63) = (  -0.3750000   0.3750000   1.1250000), wk =   0.0625000
        k(   64) = (  -0.8750000  -0.6250000   1.1250000), wk =   0.0000000

     Dense  grid:     2733 G-vectors     FFT dimensions: (  20,  20,  20)

     Estimated max dynamical RAM per process >       0.32MB

     Estimated total allocated dynamical RAM >       1.29MB

     Check: negative/imaginary core charge=   -0.000006    0.000000

     The potential is recalculated from file :
     ./_ph0/silicon.10.22.save/charge-density.dat

     Starting wfc are    8 atomic wfcs

     Band Structure Calculation
     Davidson diagonalization with overlap

     ethr =  1.25E-10,  avg # of iterations = 11.5

     total cpu time spent up to now is        5.9 secs

     End of band structure calculation

          k =-0.1250 0.1250 0.1250 (   335 PWs)   bands (ev):

    -5.5088   4.7249   6.0342   6.0342

          k =-0.6250-0.8750 0.1250 (   347 PWs)   bands (ev):

    -2.2119  -0.6393   2.2257   3.3353

          k =-0.3750 0.3750-0.1250 (   341 PWs)   bands (ev):

    -4.4530   1.6776   3.9964   5.5449

          k =-0.8750-0.6250-0.1250 (   347 PWs)   bands (ev):

    -2.2119  -0.6393   2.2257   3.3353

          k = 0.3750-0.3750 0.6250 (   343 PWs)   bands (ev):

    -3.2710  -0.4671   4.0317   4.7477

          k =-0.1250-1.3750 0.6250 (   347 PWs)   bands (ev):

    -2.7616  -0.3522   2.2974   4.4197

          k = 0.1250-0.1250 0.3750 (   338 PWs)   bands (ev):

    -4.9666   3.0924   4.9927   5.0771

          k =-0.3750-1.1250 0.3750 (   347 PWs)   bands (ev):

    -2.7616  -0.3522   2.2974   4.4197

          k =-0.1250 0.6250 0.1250 (   337 PWs)   bands (ev):

    -3.9056   1.3694   3.6305   4.0942

          k =-0.6250-0.3750 0.1250 (   344 PWs)   bands (ev):

    -3.4754   0.4555   2.9771   4.3770

          k = 0.6250-0.1250 0.8750 (   347 PWs)   bands (ev):

    -2.2119  -0.6393   2.2257   3.3353

          k = 0.1250-1.1250 0.8750 (   344 PWs)   bands (ev):

    -2.3914  -0.5351   2.8551   3.6149

          k = 0.3750 0.1250 0.6250 (   344 PWs)   bands (ev):

    -3.4754   0.4555   2.9771   4.3770

          k =-0.1250-0.8750 0.6250 (   347 PWs)   bands (ev):

    -2.2119  -0.6393   2.2257   3.3353

          k =-0.1250-0.8750 0.1250 (   344 PWs)   bands (ev):

    -2.3914  -0.5351   2.8551   3.6149

          k =-0.6250-1.8750 0.1250 (   337 PWs)   bands (ev):

    -3.9056   1.3694   3.6305   4.0942

          k =-0.3750 0.3750 0.3750 (   350 PWs)   bands (ev):

    -4.0054   0.3404   5.2286   5.2286

          k =-0.8750-0.6250 0.3750 (   344 PWs)   bands (ev):

    -3.4754   0.4555   2.9771   4.3770

          k = 0.3750-0.3750 1.1250 (   347 PWs)   bands (ev):

    -2.7616  -0.3522   2.2974   4.4197

          k =-0.1250-1.3750 1.1250 (   347 PWs)   bands (ev):

    -2.2119  -0.6393   2.2257   3.3353

          k = 0.1250-0.3750 0.3750 (   341 PWs)   bands (ev):

    -4.4530   1.6776   3.9964   5.5449

          k =-0.3750-1.3750 0.3750 (   343 PWs)   bands (ev):

    -3.2710  -0.4671   4.0317   4.7477

          k = 0.3750-0.3750-0.1250 (   341 PWs)   bands (ev):

    -4.4530   1.6776   3.9964   5.5449

          k =-0.1250-1.3750-0.1250 (   337 PWs)   bands (ev):

    -3.9056   1.3694   3.6305   4.0942

          k =-0.6250 0.3750-0.3750 (   343 PWs)   bands (ev):

    -3.2710  -0.4671   4.0317   4.7477

          k =-1.1250-0.6250-0.3750 (   344 PWs)   bands (ev):

    -3.4754   0.4555   2.9771   4.3770

          k =-0.3750 0.3750 0.6250 (   343 PWs)   bands (ev):

    -3.2710  -0.4671   4.0317   4.7477

          k =-0.8750-0.6250 0.6250 (   341 PWs)   bands (ev):

    -4.4530   1.6776   3.9964   5.5449

          k =-0.3750 0.1250-0.1250 (   338 PWs)   bands (ev):

    -4.9666   3.0924   4.9927   5.0771

          k =-0.8750-0.8750-0.1250 (   344 PWs)   bands (ev):

    -2.3914  -0.5351   2.8551   3.6149

          k =-0.1250 0.1250 0.3750 (   338 PWs)   bands (ev):

    -4.9666   3.0924   4.9927   5.0771

          k =-0.6250-0.8750 0.3750 (   344 PWs)   bands (ev):

    -3.4754   0.4555   2.9771   4.3770

          k = 0.1250 0.6250-0.1250 (   337 PWs)   bands (ev):

    -3.9056   1.3694   3.6305   4.0942

          k =-0.3750-0.3750-0.1250 (   341 PWs)   bands (ev):

    -4.4530   1.6776   3.9964   5.5449

          k = 0.6250 0.1250-0.1250 (   337 PWs)   bands (ev):

    -3.9056   1.3694   3.6305   4.0942

          k = 0.1250-0.8750-0.1250 (   344 PWs)   bands (ev):

    -2.3914  -0.5351   2.8551   3.6149

          k =-0.8750 0.1250-0.6250 (   347 PWs)   bands (ev):

    -2.2119  -0.6393   2.2257   3.3353

          k =-1.3750-0.8750-0.6250 (   341 PWs)   bands (ev):

    -4.4530   1.6776   3.9964   5.5449

          k = 0.8750-0.1250 0.6250 (   347 PWs)   bands (ev):

    -2.2119  -0.6393   2.2257   3.3353

          k = 0.3750-1.1250 0.6250 (   344 PWs)   bands (ev):

    -3.4754   0.4555   2.9771   4.3770

          k =-0.6250 0.1250 0.8750 (   347 PWs)   bands (ev):

    -2.2119  -0.6393   2.2257   3.3353

          k =-1.1250-0.8750 0.8750 (   335 PWs)   bands (ev):

    -5.5088   4.7249   6.0342   6.0342

          k =-0.1250 0.8750 0.6250 (   347 PWs)   bands (ev):

    -2.2119  -0.6393   2.2257   3.3353

          k =-0.6250-0.1250 0.6250 (   347 PWs)   bands (ev):

    -2.7616  -0.3522   2.2974   4.4197

          k = 0.1250 0.8750-0.6250 (   347 PWs)   bands (ev):

    -2.2119  -0.6393   2.2257   3.3353

          k =-0.3750-0.1250-0.6250 (   344 PWs)   bands (ev):

    -3.4754   0.4555   2.9771   4.3770

          k =-0.6250-0.1250-0.3750 (   344 PWs)   bands (ev):

    -3.4754   0.4555   2.9771   4.3770

          k =-1.1250-1.1250-0.3750 (   337 PWs)   bands (ev):

    -3.9056   1.3694   3.6305   4.0942

          k = 0.6250 0.1250 0.3750 (   344 PWs)   bands (ev):

    -3.4754   0.4555   2.9771   4.3770

          k = 0.1250-0.8750 0.3750 (   347 PWs)   bands (ev):

    -2.2119  -0.6393   2.2257   3.3353

          k =-0.3750-0.1250 0.6250 (   344 PWs)   bands (ev):

    -3.4754   0.4555   2.9771   4.3770

          k =-0.8750-1.1250 0.6250 (   338 PWs)   bands (ev):

    -4.9666   3.0924   4.9927   5.0771

          k = 0.1250 0.6250 0.3750 (   344 PWs)   bands (ev):

    -3.4754   0.4555   2.9771   4.3770

          k =-0.3750-0.3750 0.3750 (   350 PWs)   bands (ev):

    -4.0054   0.3404   5.2286   5.2286

          k =-0.1250 0.6250-0.3750 (   344 PWs)   bands (ev):

    -3.4754   0.4555   2.9771   4.3770

          k =-0.6250-0.3750-0.3750 (   343 PWs)   bands (ev):

    -3.2710  -0.4671   4.0317   4.7477

          k = 0.1250-0.8750-0.1250 (   344 PWs)   bands (ev):

    -2.3914  -0.5351   2.8551   3.6149

          k =-0.3750-1.8750-0.1250 (   338 PWs)   bands (ev):

    -4.9666   3.0924   4.9927   5.0771

          k =-0.8750 0.1250-0.1250 (   344 PWs)   bands (ev):

    -2.3914  -0.5351   2.8551   3.6149

          k =-1.3750-0.8750-0.1250 (   347 PWs)   bands (ev):

    -2.2119  -0.6393   2.2257   3.3353

          k =-1.1250 0.3750-0.3750 (   347 PWs)   bands (ev):

    -2.7616  -0.3522   2.2974   4.4197

          k =-1.6250-0.6250-0.3750 (   343 PWs)   bands (ev):

    -3.2710  -0.4671   4.0317   4.7477

          k =-0.3750 0.3750 1.1250 (   347 PWs)   bands (ev):

    -2.7616  -0.3522   2.2974   4.4197

          k =-0.8750-0.6250 1.1250 (   338 PWs)   bands (ev):

    -4.9666   3.0924   4.9927   5.0771

     highest occupied level (ev):     6.0342

     Writing output data file silicon.10.22.save

                                                                                

     bravais-lattice index     =            2
     lattice parameter (alat)  =      10.2200  a.u.
     unit-cell volume          =     266.8657 (a.u.)^3
     number of atoms/cell      =            2
     number of atomic types    =            1
     kinetic-energy cut-off    =      18.0000  Ry
     charge density cut-off    =      72.0000  Ry
     convergence threshold     =      1.0E-12
     beta                      =       0.7000
     number of iterations used =            4
     Exchange-correlation      = SLA  PW   PBE  PBE ( 1  4  3  4 0 0)


     celldm(1)=   10.22000  celldm(2)=    0.00000  celldm(3)=    0.00000
     celldm(4)=    0.00000  celldm(5)=    0.00000  celldm(6)=    0.00000

     crystal axes: (cart. coord. in units of alat)
               a(1) = ( -0.5000  0.0000  0.5000 )  
               a(2) = (  0.0000  0.5000  0.5000 )  
               a(3) = ( -0.5000  0.5000  0.0000 )  

     reciprocal axes: (cart. coord. in units 2 pi/alat)
               b(1) = ( -1.0000 -1.0000  1.0000 )  
               b(2) = (  1.0000  1.0000  1.0000 )  
               b(3) = ( -1.0000  1.0000 -1.0000 )  


     Atoms inside the unit cell: 

     Cartesian axes

     site n.  atom      mass           positions (alat units)
        1     Si  28.0860   tau(    1) = (    0.00000    0.00000    0.00000  )
        2     Si  28.0860   tau(    2) = (    0.25000    0.25000    0.25000  )

     Computing dynamical matrix for 
                    q = (  -0.5000000  -1.0000000   0.0000000 )

      8 Sym.Ops. (no q -> -q+G )


     G cutoff =  190.4910  (    683 G-vectors)     FFT grid: ( 20, 20, 20)
     number of k points=    64

     PseudoPot. # 1 for Si read from file:
     /home/max/quantum_espresso/qe-6.1/pseudo/si_pbe_v1.uspp.F.UPF.txt
     MD5 check sum: a056efeee980c13900f22a371efd63c1
     Pseudo is Ultrasoft + core correction, Zval =  4.0
     Generated by new atomic code, or converted to UPF format
     Using radial grid of  899 points,  6 beta functions with: 
                l(1) =   0
                l(2) =   0
                l(3) =   1
                l(4) =   1
                l(5) =   2
                l(6) =   2
     Q(r) pseudized with  8 coefficients,  rinner =    0.900   0.900   0.900
                                                       0.900   0.900


     Atomic displacements:
     There are   3 irreducible representations

     Representation     1      2 modes -  To be done

     Representation     2      2 modes -  To be done

     Representation     3      2 modes -  To be done



     Alpha used in Ewald sum =   0.7000
     PHONON       :  1m 8.81s CPU     1m12.09s WALL



     Representation #  1 modes #   1  2

     Self-consistent Calculation

      iter #   1 total cpu time :    72.3 secs   av.it.:   5.3
      thresh= 1.000E-02 alpha_mix =  0.700 |ddv_scf|^2 =  6.559E-06

      iter #   2 total cpu time :    72.7 secs   av.it.:   9.9
      thresh= 2.561E-04 alpha_mix =  0.700 |ddv_scf|^2 =  3.587E-06

      iter #   3 total cpu time :    73.0 secs   av.it.:   9.2
      thresh= 1.894E-04 alpha_mix =  0.700 |ddv_scf|^2 =  8.124E-09

      iter #   4 total cpu time :    73.3 secs   av.it.:   9.1
      thresh= 9.013E-06 alpha_mix =  0.700 |ddv_scf|^2 =  1.946E-11

      iter #   5 total cpu time :    73.6 secs   av.it.:   9.1
      thresh= 4.412E-07 alpha_mix =  0.700 |ddv_scf|^2 =  5.424E-13

     End of self-consistent calculation

     Convergence has been achieved 


     Representation #  2 modes #   3  4

     Self-consistent Calculation

      iter #   1 total cpu time :    73.8 secs   av.it.:   5.3
      thresh= 1.000E-02 alpha_mix =  0.700 |ddv_scf|^2 =  1.002E-05

      iter #   2 total cpu time :    74.2 secs   av.it.:   9.9
      thresh= 3.165E-04 alpha_mix =  0.700 |ddv_scf|^2 =  1.292E-05

      iter #   3 total cpu time :    74.5 secs   av.it.:   9.0
      thresh= 3.594E-04 alpha_mix =  0.700 |ddv_scf|^2 =  9.432E-09

      iter #   4 total cpu time :    74.8 secs   av.it.:   8.9
      thresh= 9.712E-06 alpha_mix =  0.700 |ddv_scf|^2 =  6.492E-11

      iter #   5 total cpu time :    75.1 secs   av.it.:   9.3
      thresh= 8.057E-07 alpha_mix =  0.700 |ddv_scf|^2 =  1.519E-12

      iter #   6 total cpu time :    75.4 secs   av.it.:   9.1
      thresh= 1.232E-07 alpha_mix =  0.700 |ddv_scf|^2 =  1.338E-14

     End of self-consistent calculation

     Convergence has been achieved 


     Representation #  3 modes #   5  6

     Self-consistent Calculation

      iter #   1 total cpu time :    75.6 secs   av.it.:   5.1
      thresh= 1.000E-02 alpha_mix =  0.700 |ddv_scf|^2 =  2.731E-06

      iter #   2 total cpu time :    76.0 secs   av.it.:   9.7
      thresh= 1.652E-04 alpha_mix =  0.700 |ddv_scf|^2 =  1.508E-06

      iter #   3 total cpu time :    76.3 secs   av.it.:   9.1
      thresh= 1.228E-04 alpha_mix =  0.700 |ddv_scf|^2 =  7.830E-09

      iter #   4 total cpu time :    76.6 secs   av.it.:   8.8
      thresh= 8.849E-06 alpha_mix =  0.700 |ddv_scf|^2 =  4.262E-11

      iter #   5 total cpu time :    76.9 secs   av.it.:   9.1
      thresh= 6.528E-07 alpha_mix =  0.700 |ddv_scf|^2 =  7.008E-13

     End of self-consistent calculation

     Convergence has been achieved 

     Number of q in the star =    6
     List of q in the star:
          1  -0.500000000  -1.000000000   0.000000000
          2   0.000000000   1.000000000   0.500000000
          3   0.000000000  -1.000000000  -0.500000000
          4   0.500000000   1.000000000   0.000000000
          5  -1.000000000  -0.500000000   0.000000000
          6   0.000000000  -0.500000000  -1.000000000

     Diagonalizing the dynamical matrix

     q = (   -0.500000000  -1.000000000   0.000000000 ) 

 **************************************************************************
     freq (    1) =       6.935113 [THz] =     231.330479 [cm-1]
     freq (    2) =       6.935113 [THz] =     231.330479 [cm-1]
     freq (    3) =      11.157041 [THz] =     372.158824 [cm-1]
     freq (    4) =      11.157041 [THz] =     372.158824 [cm-1]
     freq (    5) =      14.425838 [THz] =     481.194172 [cm-1]
     freq (    6) =      14.425838 [THz] =     481.194172 [cm-1]
 **************************************************************************

     init_run     :      0.51s CPU      0.53s WALL (       7 calls)
     electrons    :      4.38s CPU      4.57s WALL (       7 calls)

     Called by init_run:
     wfcinit      :      0.00s CPU      0.00s WALL (       7 calls)
     potinit      :      0.02s CPU      0.02s WALL (       7 calls)

     Called by electrons:
     c_bands      :      4.38s CPU      4.56s WALL (       7 calls)
     v_of_rho     :      0.01s CPU      0.01s WALL (       8 calls)
     newd         :      0.03s CPU      0.03s WALL (       8 calls)

     Called by c_bands:
     init_us_2    :      0.64s CPU      0.67s WALL (   17588 calls)
     cegterg      :      3.69s CPU      3.84s WALL (     796 calls)

     Called by sum_band:

     Called by *egterg:
     h_psi        :     40.87s CPU     42.80s WALL (  151818 calls)
     s_psi        :      5.54s CPU      5.82s WALL (  308434 calls)
     g_psi        :      0.03s CPU      0.03s WALL (    9190 calls)
     cdiaghg      :      0.42s CPU      0.44s WALL (    9986 calls)

     Called by h_psi:
     h_psi:pot    :     40.69s CPU     42.60s WALL (  151818 calls)
     h_psi:calbec :      3.91s CPU      4.09s WALL (  151818 calls)
     vloc_psi     :     33.81s CPU     35.40s WALL (  151818 calls)
     add_vuspsi   :      2.76s CPU      2.90s WALL (  151818 calls)

     General routines
     calbec       :      8.71s CPU      9.22s WALL (  344806 calls)
     fft          :      0.27s CPU      0.28s WALL (    5239 calls)
     ffts         :      0.13s CPU      0.13s WALL (    2748 calls)
     fftw         :     39.05s CPU     40.88s WALL ( 1375428 calls)
     davcio       :      0.30s CPU      0.31s WALL (   79045 calls)

     Parallel routines
     fft_scatter  :      7.19s CPU      7.56s WALL ( 1383415 calls)

     PHONON       :  1m13.44s CPU     1m16.90s WALL

     INITIALIZATION: 
     phq_setup    :      0.05s CPU      0.05s WALL (       8 calls)
     phq_init     :      2.00s CPU      2.12s WALL (       8 calls)

     phq_init     :      2.00s CPU      2.12s WALL (       8 calls)
     set_drhoc    :      0.28s CPU      0.28s WALL (      24 calls)
     init_vloc    :      0.01s CPU      0.01s WALL (       8 calls)
     init_us_1    :      0.47s CPU      0.47s WALL (       8 calls)
     newd         :      0.03s CPU      0.03s WALL (       8 calls)
     dvanqq       :      0.23s CPU      0.23s WALL (       8 calls)
     drho         :      0.97s CPU      0.99s WALL (       8 calls)

     DYNAMICAL MATRIX:
     dynmat0      :      0.57s CPU      0.68s WALL (       8 calls)
     phqscf       :     63.87s CPU     66.93s WALL (       8 calls)
     dynmatrix    :      0.01s CPU      0.02s WALL (       8 calls)

     phqscf       :     63.87s CPU     66.93s WALL (       8 calls)
     solve_linter :     63.22s CPU     66.23s WALL (      32 calls)
     drhodv       :      0.46s CPU      0.49s WALL (      32 calls)

     dynmat0      :      0.57s CPU      0.68s WALL (       8 calls)
     dynmat_us    :      0.36s CPU      0.47s WALL (       8 calls)
     d2ionq       :      0.01s CPU      0.01s WALL (       8 calls)
     dynmatcc     :      0.20s CPU      0.20s WALL (       8 calls)

     dynmat_us    :      0.36s CPU      0.47s WALL (       8 calls)
     addusdynmat  :      0.00s CPU      0.00s WALL (       8 calls)

     phqscf       :     63.87s CPU     66.93s WALL (       8 calls)
     solve_linter :     63.22s CPU     66.23s WALL (      32 calls)

     solve_linter :     63.22s CPU     66.23s WALL (      32 calls)
     dvqpsi_us    :      1.57s CPU      1.64s WALL (    2508 calls)
     ortho        :      0.91s CPU      0.95s WALL (   15550 calls)
     cgsolve      :     49.67s CPU     52.04s WALL (   15550 calls)
     incdrhoscf   :      4.36s CPU      4.57s WALL (   15550 calls)
     addusddens   :      1.05s CPU      1.06s WALL (     228 calls)
     vpsifft      :      3.20s CPU      3.36s WALL (   12922 calls)
     dv_of_drho   :      0.19s CPU      0.20s WALL (     295 calls)
     mix_pot      :      0.05s CPU      0.06s WALL (     201 calls)
     psymdvscf    :      0.80s CPU      0.80s WALL (     196 calls)
     newdq        :      1.09s CPU      1.16s WALL (     201 calls)
     adddvscf     :      0.45s CPU      0.47s WALL (   13042 calls)
     drhodvus     :      0.00s CPU      0.00s WALL (      32 calls)

     dvqpsi_us    :      1.57s CPU      1.64s WALL (    2508 calls)
     dvqpsi_us_on :      0.81s CPU      0.84s WALL (    2508 calls)

     cgsolve      :     49.67s CPU     52.04s WALL (   15550 calls)
     ch_psi       :     48.22s CPU     50.50s WALL (  141036 calls)

     ch_psi       :     48.22s CPU     50.50s WALL (  141036 calls)
     h_psi        :     40.87s CPU     42.80s WALL (  151818 calls)
     last         :      7.49s CPU      7.85s WALL (  141036 calls)

     h_psi        :     40.87s CPU     42.80s WALL (  151818 calls)
     add_vuspsi   :      2.76s CPU      2.90s WALL (  151818 calls)

     incdrhoscf   :      4.36s CPU      4.57s WALL (   15550 calls)
     addusdbec    :      0.58s CPU      0.60s WALL (   17998 calls)

     drhodvus     :      0.00s CPU      0.00s WALL (      32 calls)

      General routines
     calbec       :      8.71s CPU      9.22s WALL (  344806 calls)
     fft          :      0.27s CPU      0.28s WALL (    5239 calls)
     ffts         :      0.13s CPU      0.13s WALL (    2748 calls)
     fftw         :     39.05s CPU     40.88s WALL ( 1375428 calls)
     davcio       :      0.30s CPU      0.31s WALL (   79045 calls)
     write_rec    :      0.20s CPU      0.21s WALL (     233 calls)


     PHONON       :  1m13.44s CPU     1m16.90s WALL


   This run was terminated on:   1: 8:22   9Nov2017            

=------------------------------------------------------------------------------=
   JOB DONE.
=------------------------------------------------------------------------------=
