
     Program PWSCF v.6.1 (svn rev. 13369) starts on 10Nov2017 at 10:31:44 

     This program is part of the open-source Quantum ESPRESSO suite
     for quantum simulation of materials; please cite
         "P. Giannozzi et al., J. Phys.:Condens. Matter 21 395502 (2009);
          URL http://www.quantum-espresso.org", 
     in publications or presentations arising from this work. More details at
     http://www.quantum-espresso.org/quote

     Parallel version (MPI), running on     4 processors
     R & G space division:  proc/nbgrp/npool/nimage =       4
     Waiting for input...
     Reading input from standard input
     Message from routine read_cards :
     DEPRECATED: no units specified in ATOMIC_POSITIONS card
     Message from routine read_cards :
     ATOMIC_POSITIONS: units set to alat

     Current dimensions of program PWSCF are:
     Max number of different atomic species (ntypx) = 10
     Max number of k-points (npk) =  40000
     Max angular momentum in pseudopotentials (lmaxx) =  3

     Subspace diagonalization in iterative solution of the eigenvalue problem:
     a serial algorithm will be used


     Parallelization info
     --------------------
     sticks:   dense  smooth     PW     G-vecs:    dense   smooth      PW
     Min         218     109     37                 4315     1545     309
     Max         220     110     38                 4316     1546     312
     Sum         877     439    151                17261     6183    1243



     bravais-lattice index     =            2
     lattice parameter (alat)  =      10.3440  a.u.
     unit-cell volume          =     276.6977 (a.u.)^3
     number of atoms/cell      =            2
     number of atomic types    =            1
     number of electrons       =         8.00
     number of Kohn-Sham states=            4
     kinetic-energy cutoff     =      30.0000  Ry
     charge density cutoff     =     240.0000  Ry
     convergence threshold     =      1.0E-08
     mixing beta               =       0.7000
     number of iterations used =            8  plain     mixing
     Exchange-correlation      = SLA  PW   PBE  PBE ( 1  4  3  4 0 0)

     celldm(1)=  10.344000  celldm(2)=   0.000000  celldm(3)=   0.000000
     celldm(4)=   0.000000  celldm(5)=   0.000000  celldm(6)=   0.000000

     crystal axes: (cart. coord. in units of alat)
               a(1) = (  -0.500000   0.000000   0.500000 )  
               a(2) = (   0.000000   0.500000   0.500000 )  
               a(3) = (  -0.500000   0.500000   0.000000 )  

     reciprocal axes: (cart. coord. in units 2 pi/alat)
               b(1) = ( -1.000000 -1.000000  1.000000 )  
               b(2) = (  1.000000  1.000000  1.000000 )  
               b(3) = ( -1.000000  1.000000 -1.000000 )  


     PseudoPot. # 1 for Si read from file:
     /home/max/quantum_espresso/qe-6.1/pseudo/si_pbe_v1.uspp.F.UPF.txt
     MD5 check sum: a056efeee980c13900f22a371efd63c1
     Pseudo is Ultrasoft + core correction, Zval =  4.0
     Generated by new atomic code, or converted to UPF format
     Using radial grid of  899 points,  6 beta functions with: 
                l(1) =   0
                l(2) =   0
                l(3) =   1
                l(4) =   1
                l(5) =   2
                l(6) =   2
     Q(r) pseudized with  8 coefficients,  rinner =    0.900   0.900   0.900
                                                       0.900   0.900

     atomic species   valence    mass     pseudopotential
        Si             4.00    28.08600     Si( 1.00)

     48 Sym. Ops., with inversion, found (24 have fractional translation)



   Cartesian axes

     site n.     atom                  positions (alat units)
         1           Si  tau(   1) = (   0.0000000   0.0000000   0.0000000  )
         2           Si  tau(   2) = (   0.2500000   0.2500000   0.2500000  )

     number of k points=    28
                       cart. coord. in units 2pi/alat
        k(    1) = (  -0.0833333   0.0833333   0.0833333), wk =   0.0185185
        k(    2) = (  -0.2500000   0.2500000  -0.0833333), wk =   0.0555556
        k(    3) = (  -0.4166667   0.4166667  -0.2500000), wk =   0.0555556
        k(    4) = (   0.4166667  -0.4166667   0.5833333), wk =   0.0555556
        k(    5) = (   0.2500000  -0.2500000   0.4166667), wk =   0.0555556
        k(    6) = (   0.0833333  -0.0833333   0.2500000), wk =   0.0555556
        k(    7) = (  -0.0833333   0.4166667   0.0833333), wk =   0.0555556
        k(    8) = (  -0.2500000   0.5833333  -0.0833333), wk =   0.1111111
        k(    9) = (   0.5833333  -0.2500000   0.7500000), wk =   0.1111111
        k(   10) = (   0.4166667  -0.0833333   0.5833333), wk =   0.1111111
        k(   11) = (   0.2500000   0.0833333   0.4166667), wk =   0.1111111
        k(   12) = (  -0.0833333   0.7500000   0.0833333), wk =   0.0555556
        k(   13) = (   0.7500000  -0.0833333   0.9166667), wk =   0.1111111
        k(   14) = (   0.5833333   0.0833333   0.7500000), wk =   0.1111111
        k(   15) = (   0.4166667   0.2500000   0.5833333), wk =   0.1111111
        k(   16) = (  -0.0833333  -0.9166667   0.0833333), wk =   0.0555556
        k(   17) = (  -0.2500000  -0.7500000  -0.0833333), wk =   0.1111111
        k(   18) = (  -0.0833333  -0.5833333   0.0833333), wk =   0.0555556
        k(   19) = (  -0.2500000   0.2500000   0.2500000), wk =   0.0185185
        k(   20) = (  -0.4166667   0.4166667   0.0833333), wk =   0.0555556
        k(   21) = (   0.4166667  -0.4166667   0.9166667), wk =   0.0555556
        k(   22) = (   0.2500000  -0.2500000   0.7500000), wk =   0.0555556
        k(   23) = (  -0.2500000   0.5833333   0.2500000), wk =   0.0555556
        k(   24) = (   0.5833333  -0.2500000   1.0833333), wk =   0.1111111
        k(   25) = (   0.4166667  -0.0833333   0.9166667), wk =   0.1111111
        k(   26) = (  -0.2500000  -1.0833333   0.2500000), wk =   0.0555556
        k(   27) = (  -0.4166667   0.4166667   0.4166667), wk =   0.0185185
        k(   28) = (   0.4166667  -0.4166667   1.2500000), wk =   0.0555556

     Dense  grid:    17261 G-vectors     FFT dimensions: (  40,  40,  40)

     Smooth grid:     6183 G-vectors     FFT dimensions: (  25,  25,  25)

     Estimated max dynamical RAM per process >       3.35MB

     Estimated total allocated dynamical RAM >      13.42MB

     Initial potential from superposition of free atoms

     starting charge    7.99866, renormalised to    8.00000
     Starting wfc are    8 randomized atomic wfcs

     total cpu time spent up to now is        0.5 secs

     per-process dynamical memory:     9.8 Mb

     Self-consistent Calculation

     iteration #  1     ecut=    30.00 Ry     beta=0.70
     Davidson diagonalization with overlap
     ethr =  1.00E-02,  avg # of iterations =  2.0

     Threshold (ethr) on eigenvalues was too large:
     Diagonalizing with lowered threshold

     Davidson diagonalization with overlap
     ethr =  6.73E-04,  avg # of iterations =  1.0

     total cpu time spent up to now is        0.9 secs

     total energy              =     -19.19123370 Ry
     Harris-Foulkes estimate   =     -19.20356629 Ry
     estimated scf accuracy    <       0.05340246 Ry

     iteration #  2     ecut=    30.00 Ry     beta=0.70
     Davidson diagonalization with overlap
     ethr =  6.68E-04,  avg # of iterations =  1.0

     total cpu time spent up to now is        1.1 secs

     total energy              =     -19.19298516 Ry
     Harris-Foulkes estimate   =     -19.19315330 Ry
     estimated scf accuracy    <       0.00244676 Ry

     iteration #  3     ecut=    30.00 Ry     beta=0.70
     Davidson diagonalization with overlap
     ethr =  3.06E-05,  avg # of iterations =  2.1

     total cpu time spent up to now is        1.4 secs

     total energy              =     -19.19332304 Ry
     Harris-Foulkes estimate   =     -19.19333538 Ry
     estimated scf accuracy    <       0.00004089 Ry

     iteration #  4     ecut=    30.00 Ry     beta=0.70
     Davidson diagonalization with overlap
     ethr =  5.11E-07,  avg # of iterations =  3.3

     total cpu time spent up to now is        2.2 secs

     total energy              =     -19.19336086 Ry
     Harris-Foulkes estimate   =     -19.19336157 Ry
     estimated scf accuracy    <       0.00000277 Ry

     iteration #  5     ecut=    30.00 Ry     beta=0.70
     Davidson diagonalization with overlap
     ethr =  3.46E-08,  avg # of iterations =  2.0

     total cpu time spent up to now is        2.5 secs

     End of self-consistent calculation

          k =-0.0833 0.0833 0.0833 (   752 PWs)   bands (ev):

    -5.7604   5.0887   5.8074   5.8074

          k =-0.2500 0.2500-0.0833 (   774 PWs)   bands (ev):

    -5.2922   3.0250   4.5941   5.5982

          k =-0.4167 0.4167-0.2500 (   769 PWs)   bands (ev):

    -4.2213   0.3076   4.1315   4.9715

          k = 0.4167-0.4167 0.5833 (   771 PWs)   bands (ev):

    -3.5410  -0.8121   4.1936   4.5983

          k = 0.2500-0.2500 0.4167 (   774 PWs)   bands (ev):

    -4.6245   1.1395   4.6597   4.6846

          k = 0.0833-0.0833 0.2500 (   781 PWs)   bands (ev):

    -5.5240   4.0230   5.1747   5.3510

          k =-0.0833 0.4167 0.0833 (   775 PWs)   bands (ev):

    -5.0551   2.8261   4.4377   4.4575

          k =-0.2500 0.5833-0.0833 (   773 PWs)   bands (ev):

    -4.1615   1.0106   3.1463   4.0761

          k = 0.5833-0.2500 0.7500 (   765 PWs)   bands (ev):

    -3.0712  -0.7007   2.5493   3.8546

          k = 0.4167-0.0833 0.5833 (   769 PWs)   bands (ev):

    -3.7755   0.3322   2.5150   4.3302

          k = 0.2500 0.0833 0.4167 (   775 PWs)   bands (ev):

    -4.8339   2.0083   3.8304   4.9832

          k =-0.0833 0.7500 0.0833 (   773 PWs)   bands (ev):

    -3.4618   0.1859   3.1140   3.4451

          k = 0.7500-0.0833 0.9167 (   760 PWs)   bands (ev):

    -2.2895  -1.1334   2.2921   3.0489

          k = 0.5833 0.0833 0.7500 (   763 PWs)   bands (ev):

    -2.6584  -0.7947   1.8164   3.5839

          k = 0.4167 0.2500 0.5833 (   772 PWs)   bands (ev):

    -3.6678  -0.3268   3.4302   4.4252

          k =-0.0833-0.9167 0.0833 (   765 PWs)   bands (ev):

    -2.3773  -1.1402   2.8496   3.2330

          k =-0.2500-0.7500-0.0833 (   767 PWs)   bands (ev):

    -3.2976  -0.0321   2.6041   3.3835

          k =-0.0833-0.5833 0.0833 (   771 PWs)   bands (ev):

    -4.3627   1.5340   3.6473   3.8608

          k =-0.2500 0.2500 0.2500 (   778 PWs)   bands (ev):

    -5.0669   2.0644   5.2031   5.2031

          k =-0.4167 0.4167 0.0833 (   775 PWs)   bands (ev):

    -4.4004   1.1327   3.1104   5.0352

          k = 0.4167-0.4167 0.9167 (   769 PWs)   bands (ev):

    -3.2459  -0.2925   2.0266   4.2643

          k = 0.2500-0.2500 0.7500 (   768 PWs)   bands (ev):

    -3.1936  -0.3710   2.4933   3.7918

          k =-0.2500 0.5833 0.2500 (   775 PWs)   bands (ev):

    -3.9848   0.3408   3.5579   4.1585

          k = 0.5833-0.2500 1.0833 (   763 PWs)   bands (ev):

    -3.0026  -0.4111   2.1261   3.3832

          k = 0.4167-0.0833 0.9167 (   757 PWs)   bands (ev):

    -2.1879  -1.1411   1.9703   2.7303

          k =-0.2500-1.0833 0.2500 (   762 PWs)   bands (ev):

    -2.3953  -1.0434   1.8462   3.6005

          k =-0.4167 0.4167 0.4167 (   769 PWs)   bands (ev):

    -3.9005  -0.4194   4.8190   4.8190

          k = 0.4167-0.4167 1.2500 (   768 PWs)   bands (ev):

    -3.3091  -0.7222   3.0131   4.3884

     highest occupied level (ev):     5.8074

!    total energy              =     -19.19336124 Ry
     Harris-Foulkes estimate   =     -19.19336123 Ry
     estimated scf accuracy    <          9.6E-09 Ry

     The total energy is the sum of the following terms:

     one-electron contribution =       4.92766865 Ry
     hartree contribution      =       1.13654527 Ry
     xc contribution           =      -8.59308004 Ry
     ewald contribution        =     -16.66449511 Ry

     convergence has been achieved in   5 iterations

     Writing output data file silicon.10.344.save

     init_run     :      0.34s CPU      0.41s WALL (       1 calls)
     electrons    :      1.37s CPU      1.96s WALL (       1 calls)

     Called by init_run:
     wfcinit      :      0.08s CPU      0.09s WALL (       1 calls)
     potinit      :      0.02s CPU      0.03s WALL (       1 calls)

     Called by electrons:
     c_bands      :      0.84s CPU      1.37s WALL (       6 calls)
     sum_band     :      0.30s CPU      0.34s WALL (       6 calls)
     v_of_rho     :      0.12s CPU      0.13s WALL (       6 calls)
     newd         :      0.13s CPU      0.15s WALL (       6 calls)
     mix_rho      :      0.01s CPU      0.01s WALL (       6 calls)

     Called by c_bands:
     init_us_2    :      0.05s CPU      0.06s WALL (     364 calls)
     cegterg      :      0.72s CPU      1.22s WALL (     168 calls)

     Called by sum_band:
     sum_band:bec :      0.00s CPU      0.00s WALL (     168 calls)
     addusdens    :      0.14s CPU      0.15s WALL (       6 calls)

     Called by *egterg:
     h_psi        :      0.61s CPU      1.00s WALL (     519 calls)
     s_psi        :      0.04s CPU      0.05s WALL (     519 calls)
     g_psi        :      0.00s CPU      0.00s WALL (     323 calls)
     cdiaghg      :      0.05s CPU      0.07s WALL (     463 calls)

     Called by h_psi:
     h_psi:pot    :      0.60s CPU      1.00s WALL (     519 calls)
     h_psi:calbec :      0.06s CPU      0.11s WALL (     519 calls)
     vloc_psi     :      0.50s CPU      0.84s WALL (     519 calls)
     add_vuspsi   :      0.04s CPU      0.05s WALL (     519 calls)

     General routines
     calbec       :      0.08s CPU      0.13s WALL (     687 calls)
     fft          :      0.08s CPU      0.10s WALL (      96 calls)
     ffts         :      0.00s CPU      0.00s WALL (      12 calls)
     fftw         :      0.50s CPU      0.84s WALL (    4618 calls)
     interpolate  :      0.01s CPU      0.01s WALL (      12 calls)
     davcio       :      0.00s CPU      0.00s WALL (      28 calls)

     Parallel routines
     fft_scatter  :      0.29s CPU      0.61s WALL (    4726 calls)

     PWSCF        :     1.92s CPU         2.60s WALL


   This run was terminated on:  10:31:47  10Nov2017            

=------------------------------------------------------------------------------=
   JOB DONE.
=------------------------------------------------------------------------------=
