
     Program PHONON v.6.1 (svn rev. 13369) starts on 10Nov2017 at 15:32:26 

     This program is part of the open-source Quantum ESPRESSO suite
     for quantum simulation of materials; please cite
         "P. Giannozzi et al., J. Phys.:Condens. Matter 21 395502 (2009);
          URL http://www.quantum-espresso.org", 
     in publications or presentations arising from this work. More details at
     http://www.quantum-espresso.org/quote

     Parallel version (MPI), running on     4 processors
     R & G space division:  proc/nbgrp/npool/nimage =       4

     Reading data from directory:
     ./silicon.10.314.save

   Info: using nr1, nr2, nr3 values from input

   Info: using nr1, nr2, nr3 values from input

     IMPORTANT: XC functional enforced from input :
     Exchange-correlation      = SLA  PW   PBE  PBE ( 1  4  3  4 0 0)
     Any further DFT definition will be discarded
     Please, verify this is what you really want


     Parallelization info
     --------------------
     sticks:   dense  smooth     PW     G-vecs:    dense   smooth      PW
     Min         217     109     37                 4288     1520     284
     Max         219     111     38                 4289     1521     285
     Sum         871     439    151                17153     6081    1139



     Dynamical matrices for ( 4, 4, 4)  uniform grid of q-points
     (   8q-points):
       N         xq(1)         xq(2)         xq(3) 
       1   0.000000000   0.000000000   0.000000000
       2  -0.250000000   0.250000000  -0.250000000
       3   0.500000000  -0.500000000   0.500000000
       4   0.000000000   0.500000000   0.000000000
       5   0.750000000  -0.250000000   0.750000000
       6   0.500000000   0.000000000   0.500000000
       7   0.000000000  -1.000000000   0.000000000
       8  -0.500000000  -1.000000000   0.000000000

     Calculation of q =    0.0000000   0.0000000   0.0000000

                                                                                

     bravais-lattice index     =            2
     lattice parameter (alat)  =      10.3140  a.u.
     unit-cell volume          =     274.2972 (a.u.)^3
     number of atoms/cell      =            2
     number of atomic types    =            1
     kinetic-energy cut-off    =      30.0000  Ry
     charge density cut-off    =     240.0000  Ry
     convergence threshold     =      1.0E-12
     beta                      =       0.7000
     number of iterations used =            4
     Exchange-correlation      = SLA  PW   PBE  PBE ( 1  4  3  4 0 0)


     celldm(1)=   10.31400  celldm(2)=    0.00000  celldm(3)=    0.00000
     celldm(4)=    0.00000  celldm(5)=    0.00000  celldm(6)=    0.00000

     crystal axes: (cart. coord. in units of alat)
               a(1) = ( -0.5000  0.0000  0.5000 )  
               a(2) = (  0.0000  0.5000  0.5000 )  
               a(3) = ( -0.5000  0.5000  0.0000 )  

     reciprocal axes: (cart. coord. in units 2 pi/alat)
               b(1) = ( -1.0000 -1.0000  1.0000 )  
               b(2) = (  1.0000  1.0000  1.0000 )  
               b(3) = ( -1.0000  1.0000 -1.0000 )  


     Atoms inside the unit cell: 

     Cartesian axes

     site n.  atom      mass           positions (alat units)
        1     Si  28.0860   tau(    1) = (    0.00000    0.00000    0.00000  )
        2     Si  28.0860   tau(    2) = (    0.25000    0.25000    0.25000  )

     Computing dynamical matrix for 
                    q = (   0.0000000   0.0000000   0.0000000 )

     49 Sym.Ops. (with q -> -q+G )


     G cutoff =  646.7043  (   4288 G-vectors)     FFT grid: ( 36, 36, 36)
     G cutoff =  323.3522  (   1520 G-vectors)  smooth grid: ( 25, 25, 25)
     number of k points=    10

     PseudoPot. # 1 for Si read from file:
     /home/s1333534/quantum_espresso/qe-6.1/pseudo/si_pbe_v1.uspp.F.UPF.txt
     MD5 check sum: a056efeee980c13900f22a371efd63c1
     Pseudo is Ultrasoft + core correction, Zval =  4.0
     Generated by new atomic code, or converted to UPF format
     Using radial grid of  899 points,  6 beta functions with: 
                l(1) =   0
                l(2) =   0
                l(3) =   1
                l(4) =   1
                l(5) =   2
                l(6) =   2
     Q(r) pseudized with  8 coefficients,  rinner =    0.900   0.900   0.900
                                                       0.900   0.900

     Mode symmetry, O_h (m-3m)  point group:


     Electric field:
     Dielectric constant
     Born effective charges in two ways 


     Atomic displacements:
     There are   2 irreducible representations

     Representation     1      3 modes -T_2g G_25' G_5+  To be done

     Representation     2      3 modes -T_1u G_15  G_4-  To be done



     Alpha used in Ewald sum =   2.5000
     PHONON       :     0.95s CPU         1.58s WALL


     Electric Fields Calculation

      iter #   1 total cpu time :     2.5 secs   av.it.:   5.7
      thresh= 1.000E-02 alpha_mix =  0.700 |ddv_scf|^2 =  1.333E-07

      iter #   2 total cpu time :     3.2 secs   av.it.:  11.8
      thresh= 3.651E-05 alpha_mix =  0.700 |ddv_scf|^2 =  7.793E-09

      iter #   3 total cpu time :     3.9 secs   av.it.:  11.4
      thresh= 8.828E-06 alpha_mix =  0.700 |ddv_scf|^2 =  5.167E-10

      iter #   4 total cpu time :     4.5 secs   av.it.:  10.2
      thresh= 2.273E-06 alpha_mix =  0.700 |ddv_scf|^2 =  3.360E-12

      iter #   5 total cpu time :     5.1 secs   av.it.:  11.1
      thresh= 1.833E-07 alpha_mix =  0.700 |ddv_scf|^2 =  3.359E-15

     End of electric fields calculation

          Dielectric constant in cartesian axis 

          (      13.927767530       0.000000000      -0.000000000 )
          (       0.000000000      13.927767530      -0.000000000 )
          (      -0.000000000      -0.000000000      13.927767530 )

          Effective charges (d Force / dE) in cartesian axis

           atom      1   Si 
      Ex  (       -0.03888        0.00000        0.00000 )
      Ey  (        0.00000       -0.03888       -0.00000 )
      Ez  (        0.00000       -0.00000       -0.03888 )
           atom      2   Si 
      Ex  (       -0.03888        0.00000        0.00000 )
      Ey  (        0.00000       -0.03888       -0.00000 )
      Ez  (        0.00000       -0.00000       -0.03888 )


     Representation #  1 modes #   1  2  3

     Self-consistent Calculation

      iter #   1 total cpu time :     6.3 secs   av.it.:   5.1
      thresh= 1.000E-02 alpha_mix =  0.700 |ddv_scf|^2 =  2.354E-08

      iter #   2 total cpu time :     7.0 secs   av.it.:  11.6
      thresh= 1.534E-05 alpha_mix =  0.700 |ddv_scf|^2 =  9.645E-10

      iter #   3 total cpu time :     7.7 secs   av.it.:  11.1
      thresh= 3.106E-06 alpha_mix =  0.700 |ddv_scf|^2 =  6.560E-11

      iter #   4 total cpu time :     8.3 secs   av.it.:  10.1
      thresh= 8.099E-07 alpha_mix =  0.700 |ddv_scf|^2 =  1.605E-13

     End of self-consistent calculation

     Convergence has been achieved 


     Representation #  2 modes #   4  5  6

     Self-consistent Calculation

      iter #   1 total cpu time :     9.1 secs   av.it.:   5.2
      thresh= 1.000E-02 alpha_mix =  0.700 |ddv_scf|^2 =  1.857E-08

      iter #   2 total cpu time :     9.8 secs   av.it.:  11.6
      thresh= 1.363E-05 alpha_mix =  0.700 |ddv_scf|^2 =  1.094E-09

      iter #   3 total cpu time :    10.4 secs   av.it.:  11.2
      thresh= 3.308E-06 alpha_mix =  0.700 |ddv_scf|^2 =  6.779E-11

      iter #   4 total cpu time :    11.0 secs   av.it.:  11.3
      thresh= 8.234E-07 alpha_mix =  0.700 |ddv_scf|^2 =  2.630E-13

     End of self-consistent calculation

     Convergence has been achieved 

     Number of q in the star =    1
     List of q in the star:
          1   0.000000000   0.000000000   0.000000000

          Dielectric constant in cartesian axis 

          (      13.927767530       0.000000000      -0.000000000 )
          (       0.000000000      13.927767530      -0.000000000 )
          (      -0.000000000      -0.000000000      13.927767530 )

          Effective charges (d Force / dE) in cartesian axis

           atom      1   Si 
      Ex  (       -0.03888        0.00000        0.00000 )
      Ey  (        0.00000       -0.03888       -0.00000 )
      Ez  (        0.00000       -0.00000       -0.03888 )
           atom      2   Si 
      Ex  (       -0.03888        0.00000        0.00000 )
      Ey  (        0.00000       -0.03888       -0.00000 )
      Ez  (        0.00000       -0.00000       -0.03888 )

          Effective charges (d P / du) in cartesian axis 

           atom      1   Si 
      Px  (       -0.07226       -0.00000       -0.00000 )
      Py  (       -0.00000       -0.07226        0.00000 )
      Pz  (       -0.00000        0.00000       -0.07226 )
           atom      2   Si 
      Px  (       -0.07226        0.00000        0.00000 )
      Py  (       -0.00000       -0.07226       -0.00000 )
      Pz  (       -0.00000       -0.00000       -0.07226 )

     Diagonalizing the dynamical matrix

     q = (    0.000000000   0.000000000   0.000000000 ) 

 **************************************************************************
     freq (    1) =      -0.472178 [THz] =     -15.750175 [cm-1]
     freq (    2) =      -0.472178 [THz] =     -15.750175 [cm-1]
     freq (    3) =      -0.472178 [THz] =     -15.750175 [cm-1]
     freq (    4) =      15.152421 [THz] =     505.430369 [cm-1]
     freq (    5) =      15.152421 [THz] =     505.430369 [cm-1]
     freq (    6) =      15.152421 [THz] =     505.430369 [cm-1]
 **************************************************************************

     Mode symmetry, O_h (m-3m)  point group:

     freq (  1 -  3) =        -15.8  [cm-1]   --> T_1u G_15  G_4- I  
     freq (  4 -  6) =        505.4  [cm-1]   --> T_2g G_25' G_5+ R  

     Calculation of q =   -0.2500000   0.2500000  -0.2500000

   Info: using nr1, nr2, nr3 values from input

   Info: using nr1, nr2, nr3 values from input

     Parallelization info
     --------------------
     sticks:   dense  smooth     PW     G-vecs:    dense   smooth      PW
     Min         217     109     37                 4288     1520     309
     Max         218     111     38                 4289     1521     312
     Sum         871     439    151                17153     6081    1243



     bravais-lattice index     =            2
     lattice parameter (alat)  =      10.3140  a.u.
     unit-cell volume          =     274.2972 (a.u.)^3
     number of atoms/cell      =            2
     number of atomic types    =            1
     number of electrons       =         8.00
     number of Kohn-Sham states=            4
     kinetic-energy cutoff     =      30.0000  Ry
     charge density cutoff     =     240.0000  Ry
     Exchange-correlation      = SLA  PW   PBE  PBE ( 1  4  3  4 0 0)

     celldm(1)=  10.314000  celldm(2)=   0.000000  celldm(3)=   0.000000
     celldm(4)=   0.000000  celldm(5)=   0.000000  celldm(6)=   0.000000

     crystal axes: (cart. coord. in units of alat)
               a(1) = (  -0.500000   0.000000   0.500000 )  
               a(2) = (   0.000000   0.500000   0.500000 )  
               a(3) = (  -0.500000   0.500000   0.000000 )  

     reciprocal axes: (cart. coord. in units 2 pi/alat)
               b(1) = ( -1.000000 -1.000000  1.000000 )  
               b(2) = (  1.000000  1.000000  1.000000 )  
               b(3) = ( -1.000000  1.000000 -1.000000 )  


     PseudoPot. # 1 for Si read from file:
     /home/s1333534/quantum_espresso/qe-6.1/pseudo/si_pbe_v1.uspp.F.UPF.txt
     MD5 check sum: a056efeee980c13900f22a371efd63c1
     Pseudo is Ultrasoft + core correction, Zval =  4.0
     Generated by new atomic code, or converted to UPF format
     Using radial grid of  899 points,  6 beta functions with: 
                l(1) =   0
                l(2) =   0
                l(3) =   1
                l(4) =   1
                l(5) =   2
                l(6) =   2
     Q(r) pseudized with  8 coefficients,  rinner =    0.900   0.900   0.900
                                                       0.900   0.900

     atomic species   valence    mass     pseudopotential
        Si             4.00    28.08600     Si( 1.00)

     48 Sym. Ops., with inversion, found



   Cartesian axes

     site n.     atom                  positions (alat units)
         1           Si  tau(   1) = (   0.0000000   0.0000000   0.0000000  )
         2           Si  tau(   2) = (   0.2500000   0.2500000   0.2500000  )

     number of k points=   120

     Number of k-points >= 100: set verbosity='high' to print them.

     Dense  grid:    17153 G-vectors     FFT dimensions: (  36,  36,  36)

     Smooth grid:     6081 G-vectors     FFT dimensions: (  25,  25,  25)

     Estimated max dynamical RAM per process >       1.51MB

     Estimated total allocated dynamical RAM >       6.06MB

     The potential is recalculated from file :
     ./_ph0/silicon.10.314.save/charge-density.dat

     Starting wfc are    8 atomic wfcs

     Band Structure Calculation
     Davidson diagonalization with overlap

     ethr =  1.25E-10,  avg # of iterations = 12.2

     total cpu time spent up to now is        1.4 secs

     End of band structure calculation

     Number of k-points >= 100: set verbosity='high' to print the bands.

     highest occupied level (ev):     5.7530

     Writing output data file silicon.10.314.save

                                                                                

     bravais-lattice index     =            2
     lattice parameter (alat)  =      10.3140  a.u.
     unit-cell volume          =     274.2972 (a.u.)^3
     number of atoms/cell      =            2
     number of atomic types    =            1
     kinetic-energy cut-off    =      30.0000  Ry
     charge density cut-off    =     240.0000  Ry
     convergence threshold     =      1.0E-12
     beta                      =       0.7000
     number of iterations used =            4
     Exchange-correlation      = SLA  PW   PBE  PBE ( 1  4  3  4 0 0)


     celldm(1)=   10.31400  celldm(2)=    0.00000  celldm(3)=    0.00000
     celldm(4)=    0.00000  celldm(5)=    0.00000  celldm(6)=    0.00000

     crystal axes: (cart. coord. in units of alat)
               a(1) = ( -0.5000  0.0000  0.5000 )  
               a(2) = (  0.0000  0.5000  0.5000 )  
               a(3) = ( -0.5000  0.5000  0.0000 )  

     reciprocal axes: (cart. coord. in units 2 pi/alat)
               b(1) = ( -1.0000 -1.0000  1.0000 )  
               b(2) = (  1.0000  1.0000  1.0000 )  
               b(3) = ( -1.0000  1.0000 -1.0000 )  


     Atoms inside the unit cell: 

     Cartesian axes

     site n.  atom      mass           positions (alat units)
        1     Si  28.0860   tau(    1) = (    0.00000    0.00000    0.00000  )
        2     Si  28.0860   tau(    2) = (    0.25000    0.25000    0.25000  )

     Computing dynamical matrix for 
                    q = (  -0.2500000   0.2500000  -0.2500000 )

      6 Sym.Ops. (no q -> -q+G )


     G cutoff =  646.7043  (   4288 G-vectors)     FFT grid: ( 36, 36, 36)
     G cutoff =  323.3522  (   1520 G-vectors)  smooth grid: ( 25, 25, 25)
     number of k points=   120

     PseudoPot. # 1 for Si read from file:
     /home/s1333534/quantum_espresso/qe-6.1/pseudo/si_pbe_v1.uspp.F.UPF.txt
     MD5 check sum: a056efeee980c13900f22a371efd63c1
     Pseudo is Ultrasoft + core correction, Zval =  4.0
     Generated by new atomic code, or converted to UPF format
     Using radial grid of  899 points,  6 beta functions with: 
                l(1) =   0
                l(2) =   0
                l(3) =   1
                l(4) =   1
                l(5) =   2
                l(6) =   2
     Q(r) pseudized with  8 coefficients,  rinner =    0.900   0.900   0.900
                                                       0.900   0.900

     Mode symmetry, C_3v (3m)   point group:


     Atomic displacements:
     There are   4 irreducible representations

     Representation     1      1 modes -A_1  L_1  To be done

     Representation     2      1 modes -A_1  L_1  To be done

     Representation     3      2 modes -E    L_3  To be done

     Representation     4      2 modes -E    L_3  To be done



     Alpha used in Ewald sum =   2.5000
     PHONON       :    10.71s CPU        14.38s WALL



     Representation #  1 mode #   1

     Self-consistent Calculation

      iter #   1 total cpu time :    14.8 secs   av.it.:   5.9
      thresh= 1.000E-02 alpha_mix =  0.700 |ddv_scf|^2 =  4.286E-04

      iter #   2 total cpu time :    15.5 secs   av.it.:   9.0
      thresh= 2.070E-03 alpha_mix =  0.700 |ddv_scf|^2 =  6.519E-03

      iter #   3 total cpu time :    16.0 secs   av.it.:   7.0
      thresh= 8.074E-03 alpha_mix =  0.700 |ddv_scf|^2 =  2.719E-07

      iter #   4 total cpu time :    16.6 secs   av.it.:   9.6
      thresh= 5.215E-05 alpha_mix =  0.700 |ddv_scf|^2 =  1.792E-08

      iter #   5 total cpu time :    17.3 secs   av.it.:   9.6
      thresh= 1.339E-05 alpha_mix =  0.700 |ddv_scf|^2 =  3.405E-10

      iter #   6 total cpu time :    17.9 secs   av.it.:   9.7
      thresh= 1.845E-06 alpha_mix =  0.700 |ddv_scf|^2 =  1.218E-09

      iter #   7 total cpu time :    18.4 secs   av.it.:   7.6
      thresh= 3.490E-06 alpha_mix =  0.700 |ddv_scf|^2 =  3.667E-11

      iter #   8 total cpu time :    19.0 secs   av.it.:   9.3
      thresh= 6.056E-07 alpha_mix =  0.700 |ddv_scf|^2 =  4.622E-13

     End of self-consistent calculation

     Convergence has been achieved 


     Representation #  2 mode #   2

     Self-consistent Calculation

      iter #   1 total cpu time :    19.6 secs   av.it.:   5.9
      thresh= 1.000E-02 alpha_mix =  0.700 |ddv_scf|^2 =  4.286E-04

      iter #   2 total cpu time :    20.2 secs   av.it.:   9.0
      thresh= 2.070E-03 alpha_mix =  0.700 |ddv_scf|^2 =  6.519E-03

      iter #   3 total cpu time :    20.7 secs   av.it.:   7.0
      thresh= 8.074E-03 alpha_mix =  0.700 |ddv_scf|^2 =  2.719E-07

      iter #   4 total cpu time :    21.4 secs   av.it.:   9.6
      thresh= 5.215E-05 alpha_mix =  0.700 |ddv_scf|^2 =  1.792E-08

      iter #   5 total cpu time :    22.0 secs   av.it.:   9.6
      thresh= 1.339E-05 alpha_mix =  0.700 |ddv_scf|^2 =  3.405E-10

      iter #   6 total cpu time :    22.7 secs   av.it.:   9.7
      thresh= 1.845E-06 alpha_mix =  0.700 |ddv_scf|^2 =  1.218E-09

      iter #   7 total cpu time :    23.4 secs   av.it.:   7.6
      thresh= 3.490E-06 alpha_mix =  0.700 |ddv_scf|^2 =  3.667E-11

      iter #   8 total cpu time :    24.0 secs   av.it.:   9.3
      thresh= 6.056E-07 alpha_mix =  0.700 |ddv_scf|^2 =  4.622E-13

     End of self-consistent calculation

     Convergence has been achieved 


     Representation #  3 modes #   3  4

     Self-consistent Calculation

      iter #   1 total cpu time :    25.1 secs   av.it.:   5.2
      thresh= 1.000E-02 alpha_mix =  0.700 |ddv_scf|^2 =  6.626E-08

      iter #   2 total cpu time :    26.4 secs   av.it.:  11.4
      thresh= 2.574E-05 alpha_mix =  0.700 |ddv_scf|^2 =  4.260E-09

      iter #   3 total cpu time :    27.6 secs   av.it.:  11.1
      thresh= 6.527E-06 alpha_mix =  0.700 |ddv_scf|^2 =  2.255E-10

      iter #   4 total cpu time :    28.8 secs   av.it.:  11.0
      thresh= 1.502E-06 alpha_mix =  0.700 |ddv_scf|^2 =  8.565E-13

     End of self-consistent calculation

     Convergence has been achieved 


     Representation #  4 modes #   5  6

     Self-consistent Calculation

      iter #   1 total cpu time :    29.7 secs   av.it.:   5.2
      thresh= 1.000E-02 alpha_mix =  0.700 |ddv_scf|^2 =  6.627E-08

      iter #   2 total cpu time :    31.0 secs   av.it.:  11.4
      thresh= 2.574E-05 alpha_mix =  0.700 |ddv_scf|^2 =  4.259E-09

      iter #   3 total cpu time :    32.3 secs   av.it.:  11.2
      thresh= 6.526E-06 alpha_mix =  0.700 |ddv_scf|^2 =  2.254E-10

      iter #   4 total cpu time :    33.4 secs   av.it.:  11.0
      thresh= 1.501E-06 alpha_mix =  0.700 |ddv_scf|^2 =  8.607E-13

     End of self-consistent calculation

     Convergence has been achieved 

     Number of q in the star =    8
     List of q in the star:
          1  -0.250000000   0.250000000  -0.250000000
          2   0.250000000  -0.250000000  -0.250000000
          3   0.250000000  -0.250000000   0.250000000
          4   0.250000000   0.250000000   0.250000000
          5  -0.250000000  -0.250000000  -0.250000000
          6  -0.250000000  -0.250000000   0.250000000
          7  -0.250000000   0.250000000   0.250000000
          8   0.250000000   0.250000000  -0.250000000

     Diagonalizing the dynamical matrix

     q = (   -0.250000000   0.250000000  -0.250000000 ) 

 **************************************************************************
     freq (    1) =       2.774912 [THz] =      92.561101 [cm-1]
     freq (    2) =       2.774912 [THz] =      92.561101 [cm-1]
     freq (    3) =       6.771280 [THz] =     225.865605 [cm-1]
     freq (    4) =      14.302093 [THz] =     477.066472 [cm-1]
     freq (    5) =      14.585068 [THz] =     486.505516 [cm-1]
     freq (    6) =      14.585068 [THz] =     486.505516 [cm-1]
 **************************************************************************

     Mode symmetry, C_3v (3m)   point group:

     freq (  1 -  2) =         92.6  [cm-1]   --> E    L_3           
     freq (  3 -  3) =        225.9  [cm-1]   --> A_1  L_1           
     freq (  4 -  4) =        477.1  [cm-1]   --> A_1  L_1           
     freq (  5 -  6) =        486.5  [cm-1]   --> E    L_3           

     Calculation of q =    0.5000000  -0.5000000   0.5000000

   Info: using nr1, nr2, nr3 values from input

   Info: using nr1, nr2, nr3 values from input

     Parallelization info
     --------------------
     sticks:   dense  smooth     PW     G-vecs:    dense   smooth      PW
     Min         217     109     40                 4288     1520     351
     Max         219     111     41                 4289     1521     354
     Sum         871     439    163                17153     6081    1411



     bravais-lattice index     =            2
     lattice parameter (alat)  =      10.3140  a.u.
     unit-cell volume          =     274.2972 (a.u.)^3
     number of atoms/cell      =            2
     number of atomic types    =            1
     number of electrons       =         8.00
     number of Kohn-Sham states=            4
     kinetic-energy cutoff     =      30.0000  Ry
     charge density cutoff     =     240.0000  Ry
     Exchange-correlation      = SLA  PW   PBE  PBE ( 1  4  3  4 0 0)

     celldm(1)=  10.314000  celldm(2)=   0.000000  celldm(3)=   0.000000
     celldm(4)=   0.000000  celldm(5)=   0.000000  celldm(6)=   0.000000

     crystal axes: (cart. coord. in units of alat)
               a(1) = (  -0.500000   0.000000   0.500000 )  
               a(2) = (   0.000000   0.500000   0.500000 )  
               a(3) = (  -0.500000   0.500000   0.000000 )  

     reciprocal axes: (cart. coord. in units 2 pi/alat)
               b(1) = ( -1.000000 -1.000000  1.000000 )  
               b(2) = (  1.000000  1.000000  1.000000 )  
               b(3) = ( -1.000000  1.000000 -1.000000 )  


     PseudoPot. # 1 for Si read from file:
     /home/s1333534/quantum_espresso/qe-6.1/pseudo/si_pbe_v1.uspp.F.UPF.txt
     MD5 check sum: a056efeee980c13900f22a371efd63c1
     Pseudo is Ultrasoft + core correction, Zval =  4.0
     Generated by new atomic code, or converted to UPF format
     Using radial grid of  899 points,  6 beta functions with: 
                l(1) =   0
                l(2) =   0
                l(3) =   1
                l(4) =   1
                l(5) =   2
                l(6) =   2
     Q(r) pseudized with  8 coefficients,  rinner =    0.900   0.900   0.900
                                                       0.900   0.900

     atomic species   valence    mass     pseudopotential
        Si             4.00    28.08600     Si( 1.00)

     48 Sym. Ops., with inversion, found



   Cartesian axes

     site n.     atom                  positions (alat units)
         1           Si  tau(   1) = (   0.0000000   0.0000000   0.0000000  )
         2           Si  tau(   2) = (   0.2500000   0.2500000   0.2500000  )

     number of k points=    60
                       cart. coord. in units 2pi/alat
        k(    1) = (  -0.1250000   0.1250000   0.1250000), wk =   0.0468750
        k(    2) = (   0.3750000  -0.3750000   0.6250000), wk =   0.0000000
        k(    3) = (  -0.3750000   0.3750000  -0.1250000), wk =   0.0468750
        k(    4) = (   0.1250000  -0.1250000   0.3750000), wk =   0.0000000
        k(    5) = (   0.3750000  -0.3750000   0.6250000), wk =   0.0468750
        k(    6) = (   0.8750000  -0.8750000   1.1250000), wk =   0.0000000
        k(    7) = (   0.1250000  -0.1250000   0.3750000), wk =   0.0468750
        k(    8) = (   0.6250000  -0.6250000   0.8750000), wk =   0.0000000
        k(    9) = (  -0.1250000   0.6250000   0.1250000), wk =   0.0937500
        k(   10) = (   0.3750000   0.1250000   0.6250000), wk =   0.0000000
        k(   11) = (   0.6250000  -0.1250000   0.8750000), wk =   0.0937500
        k(   12) = (   1.1250000  -0.6250000   1.3750000), wk =   0.0000000
        k(   13) = (   0.3750000   0.1250000   0.6250000), wk =   0.0937500
        k(   14) = (   0.8750000  -0.3750000   1.1250000), wk =   0.0000000
        k(   15) = (  -0.1250000  -0.8750000   0.1250000), wk =   0.0937500
        k(   16) = (   0.3750000  -1.3750000   0.6250000), wk =   0.0000000
        k(   17) = (  -0.3750000   0.3750000   0.3750000), wk =   0.0468750
        k(   18) = (   0.1250000  -0.1250000   0.8750000), wk =   0.0000000
        k(   19) = (   0.3750000  -0.3750000   1.1250000), wk =   0.0468750
        k(   20) = (   0.8750000  -0.8750000   1.6250000), wk =   0.0000000
        k(   21) = (   0.1250000  -0.1250000   0.1250000), wk =   0.0156250
        k(   22) = (   0.6250000  -0.6250000   0.6250000), wk =   0.0000000
        k(   23) = (  -0.3750000  -0.3750000  -0.1250000), wk =   0.0937500
        k(   24) = (   0.1250000  -0.8750000   0.3750000), wk =   0.0000000
        k(   25) = (  -0.1250000  -0.3750000   0.3750000), wk =   0.0468750
        k(   26) = (   0.3750000  -0.8750000   0.8750000), wk =   0.0000000
        k(   27) = (   0.3750000   0.3750000   0.6250000), wk =   0.0937500
        k(   28) = (   0.8750000  -0.1250000   1.1250000), wk =   0.0000000
        k(   29) = (   0.6250000   0.3750000  -0.3750000), wk =   0.0468750
        k(   30) = (   1.1250000  -0.1250000   0.1250000), wk =   0.0000000
        k(   31) = (   0.1250000   0.1250000   0.3750000), wk =   0.0937500
        k(   32) = (   0.6250000  -0.3750000   0.8750000), wk =   0.0000000
        k(   33) = (   0.3750000   0.1250000  -0.1250000), wk =   0.0468750
        k(   34) = (   0.8750000  -0.3750000   0.3750000), wk =   0.0000000
        k(   35) = (  -0.1250000  -0.6250000  -0.1250000), wk =   0.0468750
        k(   36) = (   0.3750000  -1.1250000   0.3750000), wk =   0.0000000
        k(   37) = (   0.1250000  -0.6250000   0.1250000), wk =   0.0468750
        k(   38) = (   0.6250000  -1.1250000   0.6250000), wk =   0.0000000
        k(   39) = (   0.6250000   0.1250000   0.8750000), wk =   0.0937500
        k(   40) = (   1.1250000  -0.3750000   1.3750000), wk =   0.0000000
        k(   41) = (  -0.8750000   0.1250000   0.6250000), wk =   0.0937500
        k(   42) = (  -0.3750000  -0.3750000   1.1250000), wk =   0.0000000
        k(   43) = (   0.8750000   0.1250000  -0.6250000), wk =   0.0937500
        k(   44) = (   1.3750000  -0.3750000  -0.1250000), wk =   0.0000000
        k(   45) = (   0.3750000  -0.1250000   0.6250000), wk =   0.0937500
        k(   46) = (   0.8750000  -0.6250000   1.1250000), wk =   0.0000000
        k(   47) = (  -0.6250000  -0.1250000   0.3750000), wk =   0.0937500
        k(   48) = (  -0.1250000  -0.6250000   0.8750000), wk =   0.0000000
        k(   49) = (   0.6250000  -0.1250000  -0.3750000), wk =   0.0937500
        k(   50) = (   1.1250000  -0.6250000   0.1250000), wk =   0.0000000
        k(   51) = (  -0.1250000   0.8750000  -0.1250000), wk =   0.0468750
        k(   52) = (   0.3750000   0.3750000   0.3750000), wk =   0.0000000
        k(   53) = (   0.1250000   0.8750000   0.1250000), wk =   0.0468750
        k(   54) = (   0.6250000   0.3750000   0.6250000), wk =   0.0000000
        k(   55) = (   0.3750000  -0.3750000   0.3750000), wk =   0.0156250
        k(   56) = (   0.8750000  -0.8750000   0.8750000), wk =   0.0000000
        k(   57) = (   0.3750000   0.3750000   1.1250000), wk =   0.0937500
        k(   58) = (   0.8750000  -0.1250000   1.6250000), wk =   0.0000000
        k(   59) = (   1.1250000   0.3750000  -0.3750000), wk =   0.0468750
        k(   60) = (   1.6250000  -0.1250000   0.1250000), wk =   0.0000000

     Dense  grid:    17153 G-vectors     FFT dimensions: (  36,  36,  36)

     Smooth grid:     6081 G-vectors     FFT dimensions: (  25,  25,  25)

     Estimated max dynamical RAM per process >       1.51MB

     Estimated total allocated dynamical RAM >       6.06MB

     The potential is recalculated from file :
     ./_ph0/silicon.10.314.save/charge-density.dat

     Starting wfc are    8 atomic wfcs

     Band Structure Calculation
     Davidson diagonalization with overlap

     ethr =  1.25E-10,  avg # of iterations = 12.2

     total cpu time spent up to now is        2.4 secs

     End of band structure calculation

          k =-0.1250 0.1250 0.1250 (   764 PWs)   bands (ev):

    -5.6171   4.4439   5.7530   5.7530

          k = 0.3750-0.3750 0.6250 (   760 PWs)   bands (ev):

    -3.4391  -0.6463   3.7816   4.4960

          k =-0.3750 0.3750-0.1250 (   767 PWs)   bands (ev):

    -4.5856   1.4428   3.7583   5.2716

          k = 0.1250-0.1250 0.3750 (   766 PWs)   bands (ev):

    -5.0869   2.8255   4.7397   4.8068

          k = 0.3750-0.3750 0.6250 (   760 PWs)   bands (ev):

    -3.4391  -0.6463   3.7816   4.4960

          k = 0.8750-0.8750 1.1250 (   764 PWs)   bands (ev):

    -5.6171   4.4439   5.7530   5.7530

          k = 0.1250-0.1250 0.3750 (   766 PWs)   bands (ev):

    -5.0869   2.8255   4.7397   4.8068

          k = 0.6250-0.6250 0.8750 (   767 PWs)   bands (ev):

    -4.5856   1.4428   3.7583   5.2716

          k =-0.1250 0.6250 0.1250 (   762 PWs)   bands (ev):

    -4.0508   1.1135   3.4069   3.8619

          k = 0.3750 0.1250 0.6250 (   766 PWs)   bands (ev):

    -3.6327   0.2335   2.7630   4.1376

          k = 0.6250-0.1250 0.8750 (   754 PWs)   bands (ev):

    -2.4021  -0.8557   2.0439   3.1263

          k = 1.1250-0.6250 1.3750 (   767 PWs)   bands (ev):

    -4.5856   1.4428   3.7583   5.2716

          k = 0.3750 0.1250 0.6250 (   766 PWs)   bands (ev):

    -3.6327   0.2335   2.7630   4.1376

          k = 0.8750-0.3750 1.1250 (   762 PWs)   bands (ev):

    -4.0508   1.1135   3.4069   3.8619

          k =-0.1250-0.8750 0.1250 (   762 PWs)   bands (ev):

    -2.5719  -0.7572   2.6574   3.3931

          k = 0.3750-1.3750 0.6250 (   760 PWs)   bands (ev):

    -3.4391  -0.6463   3.7816   4.4960

          k =-0.3750 0.3750 0.3750 (   763 PWs)   bands (ev):

    -4.1501   0.1448   4.9632   4.9632

          k = 0.1250-0.1250 0.8750 (   762 PWs)   bands (ev):

    -2.5719  -0.7572   2.6574   3.3931

          k = 0.3750-0.3750 1.1250 (   763 PWs)   bands (ev):

    -2.9412  -0.5560   2.1045   4.1773

          k = 0.8750-0.8750 1.6250 (   762 PWs)   bands (ev):

    -4.0508   1.1135   3.4069   3.8619

          k = 0.1250-0.1250 0.1250 (   764 PWs)   bands (ev):

    -5.6171   4.4439   5.7530   5.7530

          k = 0.6250-0.6250 0.6250 (   763 PWs)   bands (ev):

    -4.1501   0.1448   4.9632   4.9632

          k =-0.3750-0.3750-0.1250 (   767 PWs)   bands (ev):

    -4.5856   1.4428   3.7583   5.2716

          k = 0.1250-0.8750 0.3750 (   754 PWs)   bands (ev):

    -2.4021  -0.8557   2.0439   3.1263

          k =-0.1250-0.3750 0.3750 (   767 PWs)   bands (ev):

    -4.5856   1.4428   3.7583   5.2716

          k = 0.3750-0.8750 0.8750 (   762 PWs)   bands (ev):

    -4.0508   1.1135   3.4069   3.8619

          k = 0.3750 0.3750 0.6250 (   760 PWs)   bands (ev):

    -3.4391  -0.6463   3.7816   4.4960

          k = 0.8750-0.1250 1.1250 (   762 PWs)   bands (ev):

    -2.5719  -0.7572   2.6574   3.3931

          k = 0.6250 0.3750-0.3750 (   760 PWs)   bands (ev):

    -3.4391  -0.6463   3.7816   4.4960

          k = 1.1250-0.1250 0.1250 (   762 PWs)   bands (ev):

    -2.5719  -0.7572   2.6574   3.3931

          k = 0.1250 0.1250 0.3750 (   766 PWs)   bands (ev):

    -5.0869   2.8255   4.7397   4.8068

          k = 0.6250-0.3750 0.8750 (   766 PWs)   bands (ev):

    -3.6327   0.2335   2.7630   4.1376

          k = 0.3750 0.1250-0.1250 (   766 PWs)   bands (ev):

    -5.0869   2.8255   4.7397   4.8068

          k = 0.8750-0.3750 0.3750 (   763 PWs)   bands (ev):

    -2.9412  -0.5560   2.1045   4.1773

          k =-0.1250-0.6250-0.1250 (   762 PWs)   bands (ev):

    -4.0508   1.1135   3.4069   3.8619

          k = 0.3750-1.1250 0.3750 (   763 PWs)   bands (ev):

    -2.9412  -0.5560   2.1045   4.1773

          k = 0.1250-0.6250 0.1250 (   762 PWs)   bands (ev):

    -4.0508   1.1135   3.4069   3.8619

          k = 0.6250-1.1250 0.6250 (   767 PWs)   bands (ev):

    -4.5856   1.4428   3.7583   5.2716

          k = 0.6250 0.1250 0.8750 (   754 PWs)   bands (ev):

    -2.4021  -0.8557   2.0439   3.1263

          k = 1.1250-0.3750 1.3750 (   766 PWs)   bands (ev):

    -3.6327   0.2335   2.7630   4.1376

          k =-0.8750 0.1250 0.6250 (   754 PWs)   bands (ev):

    -2.4021  -0.8557   2.0439   3.1263

          k =-0.3750-0.3750 1.1250 (   763 PWs)   bands (ev):

    -2.9412  -0.5560   2.1045   4.1773

          k = 0.8750 0.1250-0.6250 (   754 PWs)   bands (ev):

    -2.4021  -0.8557   2.0439   3.1263

          k = 1.3750-0.3750-0.1250 (   766 PWs)   bands (ev):

    -3.6327   0.2335   2.7630   4.1376

          k = 0.3750-0.1250 0.6250 (   766 PWs)   bands (ev):

    -3.6327   0.2335   2.7630   4.1376

          k = 0.8750-0.6250 1.1250 (   766 PWs)   bands (ev):

    -5.0869   2.8255   4.7397   4.8068

          k =-0.6250-0.1250 0.3750 (   766 PWs)   bands (ev):

    -3.6327   0.2335   2.7630   4.1376

          k =-0.1250-0.6250 0.8750 (   754 PWs)   bands (ev):

    -2.4021  -0.8557   2.0439   3.1263

          k = 0.6250-0.1250-0.3750 (   766 PWs)   bands (ev):

    -3.6327   0.2335   2.7630   4.1376

          k = 1.1250-0.6250 0.1250 (   754 PWs)   bands (ev):

    -2.4021  -0.8557   2.0439   3.1263

          k =-0.1250 0.8750-0.1250 (   762 PWs)   bands (ev):

    -2.5719  -0.7572   2.6574   3.3931

          k = 0.3750 0.3750 0.3750 (   763 PWs)   bands (ev):

    -4.1501   0.1448   4.9632   4.9632

          k = 0.1250 0.8750 0.1250 (   762 PWs)   bands (ev):

    -2.5719  -0.7572   2.6574   3.3931

          k = 0.6250 0.3750 0.6250 (   760 PWs)   bands (ev):

    -3.4391  -0.6463   3.7816   4.4960

          k = 0.3750-0.3750 0.3750 (   763 PWs)   bands (ev):

    -4.1501   0.1448   4.9632   4.9632

          k = 0.8750-0.8750 0.8750 (   764 PWs)   bands (ev):

    -5.6171   4.4439   5.7530   5.7530

          k = 0.3750 0.3750 1.1250 (   763 PWs)   bands (ev):

    -2.9412  -0.5560   2.1045   4.1773

          k = 0.8750-0.1250 1.6250 (   754 PWs)   bands (ev):

    -2.4021  -0.8557   2.0439   3.1263

          k = 1.1250 0.3750-0.3750 (   763 PWs)   bands (ev):

    -2.9412  -0.5560   2.1045   4.1773

          k = 1.6250-0.1250 0.1250 (   766 PWs)   bands (ev):

    -5.0869   2.8255   4.7397   4.8068

     highest occupied level (ev):     5.7530

     Writing output data file silicon.10.314.save

                                                                                

     bravais-lattice index     =            2
     lattice parameter (alat)  =      10.3140  a.u.
     unit-cell volume          =     274.2972 (a.u.)^3
     number of atoms/cell      =            2
     number of atomic types    =            1
     kinetic-energy cut-off    =      30.0000  Ry
     charge density cut-off    =     240.0000  Ry
     convergence threshold     =      1.0E-12
     beta                      =       0.7000
     number of iterations used =            4
     Exchange-correlation      = SLA  PW   PBE  PBE ( 1  4  3  4 0 0)


     celldm(1)=   10.31400  celldm(2)=    0.00000  celldm(3)=    0.00000
     celldm(4)=    0.00000  celldm(5)=    0.00000  celldm(6)=    0.00000

     crystal axes: (cart. coord. in units of alat)
               a(1) = ( -0.5000  0.0000  0.5000 )  
               a(2) = (  0.0000  0.5000  0.5000 )  
               a(3) = ( -0.5000  0.5000  0.0000 )  

     reciprocal axes: (cart. coord. in units 2 pi/alat)
               b(1) = ( -1.0000 -1.0000  1.0000 )  
               b(2) = (  1.0000  1.0000  1.0000 )  
               b(3) = ( -1.0000  1.0000 -1.0000 )  


     Atoms inside the unit cell: 

     Cartesian axes

     site n.  atom      mass           positions (alat units)
        1     Si  28.0860   tau(    1) = (    0.00000    0.00000    0.00000  )
        2     Si  28.0860   tau(    2) = (    0.25000    0.25000    0.25000  )

     Computing dynamical matrix for 
                    q = (   0.5000000  -0.5000000   0.5000000 )

     13 Sym.Ops. (with q -> -q+G )


     G cutoff =  646.7043  (   4288 G-vectors)     FFT grid: ( 36, 36, 36)
     G cutoff =  323.3522  (   1520 G-vectors)  smooth grid: ( 25, 25, 25)
     number of k points=    60

     PseudoPot. # 1 for Si read from file:
     /home/s1333534/quantum_espresso/qe-6.1/pseudo/si_pbe_v1.uspp.F.UPF.txt
     MD5 check sum: a056efeee980c13900f22a371efd63c1
     Pseudo is Ultrasoft + core correction, Zval =  4.0
     Generated by new atomic code, or converted to UPF format
     Using radial grid of  899 points,  6 beta functions with: 
                l(1) =   0
                l(2) =   0
                l(3) =   1
                l(4) =   1
                l(5) =   2
                l(6) =   2
     Q(r) pseudized with  8 coefficients,  rinner =    0.900   0.900   0.900
                                                       0.900   0.900


     Atomic displacements:
     There are   4 irreducible representations

     Representation     1      1 modes -  To be done

     Representation     2      1 modes -  To be done

     Representation     3      2 modes -  To be done

     Representation     4      2 modes -  To be done



     Alpha used in Ewald sum =   2.5000
     PHONON       :    27.95s CPU        36.09s WALL



     Representation #  1 mode #   1

     Self-consistent Calculation

      iter #   1 total cpu time :    37.1 secs   av.it.:   5.1
      thresh= 1.000E-02 alpha_mix =  0.700 |ddv_scf|^2 =  4.205E-06

      iter #   2 total cpu time :    37.5 secs   av.it.:   9.9
      thresh= 2.051E-04 alpha_mix =  0.700 |ddv_scf|^2 =  3.842E-06

      iter #   3 total cpu time :    37.9 secs   av.it.:   9.2
      thresh= 1.960E-04 alpha_mix =  0.700 |ddv_scf|^2 =  2.318E-09

      iter #   4 total cpu time :    38.3 secs   av.it.:   9.4
      thresh= 4.815E-06 alpha_mix =  0.700 |ddv_scf|^2 =  2.263E-11

      iter #   5 total cpu time :    38.7 secs   av.it.:   9.3
      thresh= 4.758E-07 alpha_mix =  0.700 |ddv_scf|^2 =  3.059E-13

     End of self-consistent calculation

     Convergence has been achieved 


     Representation #  2 mode #   2

     Self-consistent Calculation

      iter #   1 total cpu time :    39.1 secs   av.it.:   6.0
      thresh= 1.000E-02 alpha_mix =  0.700 |ddv_scf|^2 =  5.980E-05

      iter #   2 total cpu time :    39.6 secs   av.it.:   9.8
      thresh= 7.733E-04 alpha_mix =  0.700 |ddv_scf|^2 =  1.858E-04

      iter #   3 total cpu time :    40.1 secs   av.it.:   8.6
      thresh= 1.363E-03 alpha_mix =  0.700 |ddv_scf|^2 =  1.311E-08

      iter #   4 total cpu time :    40.6 secs   av.it.:   9.8
      thresh= 1.145E-05 alpha_mix =  0.700 |ddv_scf|^2 =  6.666E-10

      iter #   5 total cpu time :    41.2 secs   av.it.:  10.2
      thresh= 2.582E-06 alpha_mix =  0.700 |ddv_scf|^2 =  2.033E-11

      iter #   6 total cpu time :    41.6 secs   av.it.:   9.7
      thresh= 4.509E-07 alpha_mix =  0.700 |ddv_scf|^2 =  1.531E-13

     End of self-consistent calculation

     Convergence has been achieved 


     Representation #  3 modes #   3  4

     Self-consistent Calculation

      iter #   1 total cpu time :    42.6 secs   av.it.:   5.0
      thresh= 1.000E-02 alpha_mix =  0.700 |ddv_scf|^2 =  2.698E-08

      iter #   2 total cpu time :    43.6 secs   av.it.:  10.9
      thresh= 1.643E-05 alpha_mix =  0.700 |ddv_scf|^2 =  1.593E-09

      iter #   3 total cpu time :    44.5 secs   av.it.:  10.7
      thresh= 3.991E-06 alpha_mix =  0.700 |ddv_scf|^2 =  5.305E-11

      iter #   4 total cpu time :    45.3 secs   av.it.:  10.7
      thresh= 7.284E-07 alpha_mix =  0.700 |ddv_scf|^2 =  4.342E-13

     End of self-consistent calculation

     Convergence has been achieved 


     Representation #  4 modes #   5  6

     Self-consistent Calculation

      iter #   1 total cpu time :    46.5 secs   av.it.:   5.1
      thresh= 1.000E-02 alpha_mix =  0.700 |ddv_scf|^2 =  1.380E-07

      iter #   2 total cpu time :    47.6 secs   av.it.:  11.1
      thresh= 3.715E-05 alpha_mix =  0.700 |ddv_scf|^2 =  1.107E-08

      iter #   3 total cpu time :    48.5 secs   av.it.:  10.9
      thresh= 1.052E-05 alpha_mix =  0.700 |ddv_scf|^2 =  2.913E-10

      iter #   4 total cpu time :    49.2 secs   av.it.:   9.8
      thresh= 1.707E-06 alpha_mix =  0.700 |ddv_scf|^2 =  5.246E-13

     End of self-consistent calculation

     Convergence has been achieved 

     Number of q in the star =    4
     List of q in the star:
          1   0.500000000  -0.500000000   0.500000000
          2   0.500000000   0.500000000   0.500000000
          3  -0.500000000   0.500000000   0.500000000
          4   0.500000000   0.500000000  -0.500000000

     Diagonalizing the dynamical matrix

     q = (    0.500000000  -0.500000000   0.500000000 ) 

 **************************************************************************
     freq (    1) =       3.272960 [THz] =     109.174201 [cm-1]
     freq (    2) =       3.272960 [THz] =     109.174201 [cm-1]
     freq (    3) =      11.120119 [THz] =     370.927234 [cm-1]
     freq (    4) =      12.076777 [THz] =     402.837907 [cm-1]
     freq (    5) =      14.381467 [THz] =     479.714091 [cm-1]
     freq (    6) =      14.381467 [THz] =     479.714091 [cm-1]
 **************************************************************************

     Calculation of q =    0.0000000   0.5000000   0.0000000

   Info: using nr1, nr2, nr3 values from input

   Info: using nr1, nr2, nr3 values from input

     Parallelization info
     --------------------
     sticks:   dense  smooth     PW     G-vecs:    dense   smooth      PW
     Min         217     109     37                 4288     1520     309
     Max         218     111     38                 4289     1521     312
     Sum         871     439    151                17153     6081    1243



     bravais-lattice index     =            2
     lattice parameter (alat)  =      10.3140  a.u.
     unit-cell volume          =     274.2972 (a.u.)^3
     number of atoms/cell      =            2
     number of atomic types    =            1
     number of electrons       =         8.00
     number of Kohn-Sham states=            4
     kinetic-energy cutoff     =      30.0000  Ry
     charge density cutoff     =     240.0000  Ry
     Exchange-correlation      = SLA  PW   PBE  PBE ( 1  4  3  4 0 0)

     celldm(1)=  10.314000  celldm(2)=   0.000000  celldm(3)=   0.000000
     celldm(4)=   0.000000  celldm(5)=   0.000000  celldm(6)=   0.000000

     crystal axes: (cart. coord. in units of alat)
               a(1) = (  -0.500000   0.000000   0.500000 )  
               a(2) = (   0.000000   0.500000   0.500000 )  
               a(3) = (  -0.500000   0.500000   0.000000 )  

     reciprocal axes: (cart. coord. in units 2 pi/alat)
               b(1) = ( -1.000000 -1.000000  1.000000 )  
               b(2) = (  1.000000  1.000000  1.000000 )  
               b(3) = ( -1.000000  1.000000 -1.000000 )  


     PseudoPot. # 1 for Si read from file:
     /home/s1333534/quantum_espresso/qe-6.1/pseudo/si_pbe_v1.uspp.F.UPF.txt
     MD5 check sum: a056efeee980c13900f22a371efd63c1
     Pseudo is Ultrasoft + core correction, Zval =  4.0
     Generated by new atomic code, or converted to UPF format
     Using radial grid of  899 points,  6 beta functions with: 
                l(1) =   0
                l(2) =   0
                l(3) =   1
                l(4) =   1
                l(5) =   2
                l(6) =   2
     Q(r) pseudized with  8 coefficients,  rinner =    0.900   0.900   0.900
                                                       0.900   0.900

     atomic species   valence    mass     pseudopotential
        Si             4.00    28.08600     Si( 1.00)

     48 Sym. Ops., with inversion, found



   Cartesian axes

     site n.     atom                  positions (alat units)
         1           Si  tau(   1) = (   0.0000000   0.0000000   0.0000000  )
         2           Si  tau(   2) = (   0.2500000   0.2500000   0.2500000  )

     number of k points=    80
                       cart. coord. in units 2pi/alat
        k(    1) = (  -0.1250000   0.1250000   0.1250000), wk =   0.0312500
        k(    2) = (  -0.1250000   0.6250000   0.1250000), wk =   0.0000000
        k(    3) = (  -0.3750000   0.3750000  -0.1250000), wk =   0.0625000
        k(    4) = (  -0.3750000   0.8750000  -0.1250000), wk =   0.0000000
        k(    5) = (   0.3750000  -0.3750000   0.6250000), wk =   0.0625000
        k(    6) = (   0.3750000   0.1250000   0.6250000), wk =   0.0000000
        k(    7) = (   0.1250000  -0.1250000   0.3750000), wk =   0.0625000
        k(    8) = (   0.1250000   0.3750000   0.3750000), wk =   0.0000000
        k(    9) = (  -0.1250000   0.6250000   0.1250000), wk =   0.0312500
        k(   10) = (  -0.1250000   1.1250000   0.1250000), wk =   0.0000000
        k(   11) = (   0.6250000  -0.1250000   0.8750000), wk =   0.0625000
        k(   12) = (   0.6250000   0.3750000   0.8750000), wk =   0.0000000
        k(   13) = (   0.3750000   0.1250000   0.6250000), wk =   0.0625000
        k(   14) = (   0.3750000   0.6250000   0.6250000), wk =   0.0000000
        k(   15) = (  -0.1250000  -0.8750000   0.1250000), wk =   0.0312500
        k(   16) = (  -0.1250000  -0.3750000   0.1250000), wk =   0.0000000
        k(   17) = (  -0.3750000   0.3750000   0.3750000), wk =   0.0312500
        k(   18) = (  -0.3750000   0.8750000   0.3750000), wk =   0.0000000
        k(   19) = (   0.3750000  -0.3750000   1.1250000), wk =   0.0625000
        k(   20) = (   0.3750000   0.1250000   1.1250000), wk =   0.0000000
        k(   21) = (  -0.1250000  -0.1250000   0.1250000), wk =   0.0312500
        k(   22) = (  -0.1250000   0.3750000   0.1250000), wk =   0.0000000
        k(   23) = (   0.1250000  -0.3750000   0.3750000), wk =   0.0625000
        k(   24) = (   0.1250000   0.1250000   0.3750000), wk =   0.0000000
        k(   25) = (   0.3750000  -0.1250000   0.3750000), wk =   0.0312500
        k(   26) = (   0.3750000   0.3750000   0.3750000), wk =   0.0000000
        k(   27) = (   0.3750000   0.1250000   0.3750000), wk =   0.0312500
        k(   28) = (   0.3750000   0.6250000   0.3750000), wk =   0.0000000
        k(   29) = (  -0.6250000   0.3750000  -0.3750000), wk =   0.0625000
        k(   30) = (  -0.6250000   0.8750000  -0.3750000), wk =   0.0000000
        k(   31) = (  -0.3750000   0.6250000  -0.3750000), wk =   0.0312500
        k(   32) = (  -0.3750000   1.1250000  -0.3750000), wk =   0.0000000
        k(   33) = (  -0.3750000  -0.6250000  -0.3750000), wk =   0.0312500
        k(   34) = (  -0.3750000  -0.1250000  -0.3750000), wk =   0.0000000
        k(   35) = (  -0.3750000   0.1250000  -0.1250000), wk =   0.0625000
        k(   36) = (  -0.3750000   0.6250000  -0.1250000), wk =   0.0000000
        k(   37) = (  -0.1250000   0.3750000  -0.1250000), wk =   0.0312500
        k(   38) = (  -0.1250000   0.8750000  -0.1250000), wk =   0.0000000
        k(   39) = (  -0.1250000  -0.3750000  -0.1250000), wk =   0.0312500
        k(   40) = (  -0.1250000   0.1250000  -0.1250000), wk =   0.0000000
        k(   41) = (  -0.1250000  -0.6250000   0.1250000), wk =   0.0312500
        k(   42) = (  -0.1250000  -0.1250000   0.1250000), wk =   0.0000000
        k(   43) = (   0.6250000  -0.1250000  -0.1250000), wk =   0.0625000
        k(   44) = (   0.6250000   0.3750000  -0.1250000), wk =   0.0000000
        k(   45) = (   0.6250000   0.1250000   0.1250000), wk =   0.0625000
        k(   46) = (   0.6250000   0.6250000   0.1250000), wk =   0.0000000
        k(   47) = (  -0.8750000   0.1250000  -0.6250000), wk =   0.0625000
        k(   48) = (  -0.8750000   0.6250000  -0.6250000), wk =   0.0000000
        k(   49) = (  -0.1250000   0.6250000  -0.8750000), wk =   0.0625000
        k(   50) = (  -0.1250000   1.1250000  -0.8750000), wk =   0.0000000
        k(   51) = (  -0.1250000   0.8750000  -0.6250000), wk =   0.0625000
        k(   52) = (  -0.1250000   1.3750000  -0.6250000), wk =   0.0000000
        k(   53) = (  -0.1250000  -0.8750000  -0.6250000), wk =   0.0625000
        k(   54) = (  -0.1250000  -0.3750000  -0.6250000), wk =   0.0000000
        k(   55) = (   0.8750000  -0.6250000   0.1250000), wk =   0.0625000
        k(   56) = (   0.8750000  -0.1250000   0.1250000), wk =   0.0000000
        k(   57) = (  -0.6250000  -0.1250000  -0.3750000), wk =   0.0625000
        k(   58) = (  -0.6250000   0.3750000  -0.3750000), wk =   0.0000000
        k(   59) = (   0.1250000   0.3750000  -0.6250000), wk =   0.0625000
        k(   60) = (   0.1250000   0.8750000  -0.6250000), wk =   0.0000000
        k(   61) = (   0.1250000   0.6250000  -0.3750000), wk =   0.0625000
        k(   62) = (   0.1250000   1.1250000  -0.3750000), wk =   0.0000000
        k(   63) = (   0.1250000  -0.6250000  -0.3750000), wk =   0.0625000
        k(   64) = (   0.1250000  -0.1250000  -0.3750000), wk =   0.0000000
        k(   65) = (   0.6250000  -0.3750000  -0.1250000), wk =   0.0625000
        k(   66) = (   0.6250000   0.1250000  -0.1250000), wk =   0.0000000
        k(   67) = (  -0.1250000   0.8750000   0.1250000), wk =   0.0312500
        k(   68) = (  -0.1250000   1.3750000   0.1250000), wk =   0.0000000
        k(   69) = (  -0.8750000  -0.1250000  -0.1250000), wk =   0.0625000
        k(   70) = (  -0.8750000   0.3750000  -0.1250000), wk =   0.0000000
        k(   71) = (  -0.8750000   0.1250000   0.1250000), wk =   0.0625000
        k(   72) = (  -0.8750000   0.6250000   0.1250000), wk =   0.0000000
        k(   73) = (  -0.3750000  -0.3750000   0.3750000), wk =   0.0312500
        k(   74) = (  -0.3750000   0.1250000   0.3750000), wk =   0.0000000
        k(   75) = (  -1.1250000   0.3750000  -0.3750000), wk =   0.0625000
        k(   76) = (  -1.1250000   0.8750000  -0.3750000), wk =   0.0000000
        k(   77) = (  -0.3750000   1.1250000  -0.3750000), wk =   0.0312500
        k(   78) = (  -0.3750000   1.6250000  -0.3750000), wk =   0.0000000
        k(   79) = (  -0.3750000  -1.1250000  -0.3750000), wk =   0.0312500
        k(   80) = (  -0.3750000  -0.6250000  -0.3750000), wk =   0.0000000

     Dense  grid:    17153 G-vectors     FFT dimensions: (  36,  36,  36)

     Smooth grid:     6081 G-vectors     FFT dimensions: (  25,  25,  25)

     Estimated max dynamical RAM per process >       1.51MB

     Estimated total allocated dynamical RAM >       6.06MB

     The potential is recalculated from file :
     ./_ph0/silicon.10.314.save/charge-density.dat

     Starting wfc are    8 atomic wfcs

     Band Structure Calculation
     Davidson diagonalization with overlap

     ethr =  1.25E-10,  avg # of iterations = 12.2

     total cpu time spent up to now is        3.5 secs

     End of band structure calculation

          k =-0.1250 0.1250 0.1250 (   764 PWs)   bands (ev):

    -5.6171   4.4439   5.7530   5.7530

          k =-0.1250 0.6250 0.1250 (   762 PWs)   bands (ev):

    -4.0508   1.1135   3.4069   3.8619

          k =-0.3750 0.3750-0.1250 (   767 PWs)   bands (ev):

    -4.5856   1.4428   3.7583   5.2716

          k =-0.3750 0.8750-0.1250 (   754 PWs)   bands (ev):

    -2.4021  -0.8557   2.0439   3.1263

          k = 0.3750-0.3750 0.6250 (   760 PWs)   bands (ev):

    -3.4391  -0.6463   3.7816   4.4960

          k = 0.3750 0.1250 0.6250 (   766 PWs)   bands (ev):

    -3.6327   0.2335   2.7630   4.1376

          k = 0.1250-0.1250 0.3750 (   766 PWs)   bands (ev):

    -5.0869   2.8255   4.7397   4.8068

          k = 0.1250 0.3750 0.3750 (   767 PWs)   bands (ev):

    -4.5856   1.4428   3.7583   5.2716

          k =-0.1250 0.6250 0.1250 (   762 PWs)   bands (ev):

    -4.0508   1.1135   3.4069   3.8619

          k =-0.1250 1.1250 0.1250 (   762 PWs)   bands (ev):

    -2.5719  -0.7572   2.6574   3.3931

          k = 0.6250-0.1250 0.8750 (   754 PWs)   bands (ev):

    -2.4021  -0.8557   2.0439   3.1263

          k = 0.6250 0.3750 0.8750 (   766 PWs)   bands (ev):

    -3.6327   0.2335   2.7630   4.1376

          k = 0.3750 0.1250 0.6250 (   766 PWs)   bands (ev):

    -3.6327   0.2335   2.7630   4.1376

          k = 0.3750 0.6250 0.6250 (   760 PWs)   bands (ev):

    -3.4391  -0.6463   3.7816   4.4960

          k =-0.1250-0.8750 0.1250 (   762 PWs)   bands (ev):

    -2.5719  -0.7572   2.6574   3.3931

          k =-0.1250-0.3750 0.1250 (   766 PWs)   bands (ev):

    -5.0869   2.8255   4.7397   4.8068

          k =-0.3750 0.3750 0.3750 (   763 PWs)   bands (ev):

    -4.1501   0.1448   4.9632   4.9632

          k =-0.3750 0.8750 0.3750 (   763 PWs)   bands (ev):

    -2.9412  -0.5560   2.1045   4.1773

          k = 0.3750-0.3750 1.1250 (   763 PWs)   bands (ev):

    -2.9412  -0.5560   2.1045   4.1773

          k = 0.3750 0.1250 1.1250 (   754 PWs)   bands (ev):

    -2.4021  -0.8557   2.0439   3.1263

          k =-0.1250-0.1250 0.1250 (   764 PWs)   bands (ev):

    -5.6171   4.4439   5.7530   5.7530

          k =-0.1250 0.3750 0.1250 (   766 PWs)   bands (ev):

    -5.0869   2.8255   4.7397   4.8068

          k = 0.1250-0.3750 0.3750 (   767 PWs)   bands (ev):

    -4.5856   1.4428   3.7583   5.2716

          k = 0.1250 0.1250 0.3750 (   766 PWs)   bands (ev):

    -5.0869   2.8255   4.7397   4.8068

          k = 0.3750-0.1250 0.3750 (   767 PWs)   bands (ev):

    -4.5856   1.4428   3.7583   5.2716

          k = 0.3750 0.3750 0.3750 (   763 PWs)   bands (ev):

    -4.1501   0.1448   4.9632   4.9632

          k = 0.3750 0.1250 0.3750 (   767 PWs)   bands (ev):

    -4.5856   1.4428   3.7583   5.2716

          k = 0.3750 0.6250 0.3750 (   760 PWs)   bands (ev):

    -3.4391  -0.6463   3.7816   4.4960

          k =-0.6250 0.3750-0.3750 (   760 PWs)   bands (ev):

    -3.4391  -0.6463   3.7816   4.4960

          k =-0.6250 0.8750-0.3750 (   766 PWs)   bands (ev):

    -3.6327   0.2335   2.7630   4.1376

          k =-0.3750 0.6250-0.3750 (   760 PWs)   bands (ev):

    -3.4391  -0.6463   3.7816   4.4960

          k =-0.3750 1.1250-0.3750 (   763 PWs)   bands (ev):

    -2.9412  -0.5560   2.1045   4.1773

          k =-0.3750-0.6250-0.3750 (   760 PWs)   bands (ev):

    -3.4391  -0.6463   3.7816   4.4960

          k =-0.3750-0.1250-0.3750 (   767 PWs)   bands (ev):

    -4.5856   1.4428   3.7583   5.2716

          k =-0.3750 0.1250-0.1250 (   766 PWs)   bands (ev):

    -5.0869   2.8255   4.7397   4.8068

          k =-0.3750 0.6250-0.1250 (   766 PWs)   bands (ev):

    -3.6327   0.2335   2.7630   4.1376

          k =-0.1250 0.3750-0.1250 (   766 PWs)   bands (ev):

    -5.0869   2.8255   4.7397   4.8068

          k =-0.1250 0.8750-0.1250 (   762 PWs)   bands (ev):

    -2.5719  -0.7572   2.6574   3.3931

          k =-0.1250-0.3750-0.1250 (   766 PWs)   bands (ev):

    -5.0869   2.8255   4.7397   4.8068

          k =-0.1250 0.1250-0.1250 (   764 PWs)   bands (ev):

    -5.6171   4.4439   5.7530   5.7530

          k =-0.1250-0.6250 0.1250 (   762 PWs)   bands (ev):

    -4.0508   1.1135   3.4069   3.8619

          k =-0.1250-0.1250 0.1250 (   764 PWs)   bands (ev):

    -5.6171   4.4439   5.7530   5.7530

          k = 0.6250-0.1250-0.1250 (   762 PWs)   bands (ev):

    -4.0508   1.1135   3.4069   3.8619

          k = 0.6250 0.3750-0.1250 (   766 PWs)   bands (ev):

    -3.6327   0.2335   2.7630   4.1376

          k = 0.6250 0.1250 0.1250 (   762 PWs)   bands (ev):

    -4.0508   1.1135   3.4069   3.8619

          k = 0.6250 0.6250 0.1250 (   763 PWs)   bands (ev):

    -2.9412  -0.5560   2.1045   4.1773

          k =-0.8750 0.1250-0.6250 (   754 PWs)   bands (ev):

    -2.4021  -0.8557   2.0439   3.1263

          k =-0.8750 0.6250-0.6250 (   767 PWs)   bands (ev):

    -4.5856   1.4428   3.7583   5.2716

          k =-0.1250 0.6250-0.8750 (   754 PWs)   bands (ev):

    -2.4021  -0.8557   2.0439   3.1263

          k =-0.1250 1.1250-0.8750 (   762 PWs)   bands (ev):

    -2.5719  -0.7572   2.6574   3.3931

          k =-0.1250 0.8750-0.6250 (   754 PWs)   bands (ev):

    -2.4021  -0.8557   2.0439   3.1263

          k =-0.1250 1.3750-0.6250 (   763 PWs)   bands (ev):

    -2.9412  -0.5560   2.1045   4.1773

          k =-0.1250-0.8750-0.6250 (   754 PWs)   bands (ev):

    -2.4021  -0.8557   2.0439   3.1263

          k =-0.1250-0.3750-0.6250 (   766 PWs)   bands (ev):

    -3.6327   0.2335   2.7630   4.1376

          k = 0.8750-0.6250 0.1250 (   754 PWs)   bands (ev):

    -2.4021  -0.8557   2.0439   3.1263

          k = 0.8750-0.1250 0.1250 (   762 PWs)   bands (ev):

    -2.5719  -0.7572   2.6574   3.3931

          k =-0.6250-0.1250-0.3750 (   766 PWs)   bands (ev):

    -3.6327   0.2335   2.7630   4.1376

          k =-0.6250 0.3750-0.3750 (   760 PWs)   bands (ev):

    -3.4391  -0.6463   3.7816   4.4960

          k = 0.1250 0.3750-0.6250 (   766 PWs)   bands (ev):

    -3.6327   0.2335   2.7630   4.1376

          k = 0.1250 0.8750-0.6250 (   754 PWs)   bands (ev):

    -2.4021  -0.8557   2.0439   3.1263

          k = 0.1250 0.6250-0.3750 (   766 PWs)   bands (ev):

    -3.6327   0.2335   2.7630   4.1376

          k = 0.1250 1.1250-0.3750 (   754 PWs)   bands (ev):

    -2.4021  -0.8557   2.0439   3.1263

          k = 0.1250-0.6250-0.3750 (   766 PWs)   bands (ev):

    -3.6327   0.2335   2.7630   4.1376

          k = 0.1250-0.1250-0.3750 (   766 PWs)   bands (ev):

    -5.0869   2.8255   4.7397   4.8068

          k = 0.6250-0.3750-0.1250 (   766 PWs)   bands (ev):

    -3.6327   0.2335   2.7630   4.1376

          k = 0.6250 0.1250-0.1250 (   762 PWs)   bands (ev):

    -4.0508   1.1135   3.4069   3.8619

          k =-0.1250 0.8750 0.1250 (   762 PWs)   bands (ev):

    -2.5719  -0.7572   2.6574   3.3931

          k =-0.1250 1.3750 0.1250 (   762 PWs)   bands (ev):

    -4.0508   1.1135   3.4069   3.8619

          k =-0.8750-0.1250-0.1250 (   762 PWs)   bands (ev):

    -2.5719  -0.7572   2.6574   3.3931

          k =-0.8750 0.3750-0.1250 (   754 PWs)   bands (ev):

    -2.4021  -0.8557   2.0439   3.1263

          k =-0.8750 0.1250 0.1250 (   762 PWs)   bands (ev):

    -2.5719  -0.7572   2.6574   3.3931

          k =-0.8750 0.6250 0.1250 (   754 PWs)   bands (ev):

    -2.4021  -0.8557   2.0439   3.1263

          k =-0.3750-0.3750 0.3750 (   763 PWs)   bands (ev):

    -4.1501   0.1448   4.9632   4.9632

          k =-0.3750 0.1250 0.3750 (   767 PWs)   bands (ev):

    -4.5856   1.4428   3.7583   5.2716

          k =-1.1250 0.3750-0.3750 (   763 PWs)   bands (ev):

    -2.9412  -0.5560   2.1045   4.1773

          k =-1.1250 0.8750-0.3750 (   762 PWs)   bands (ev):

    -4.0508   1.1135   3.4069   3.8619

          k =-0.3750 1.1250-0.3750 (   763 PWs)   bands (ev):

    -2.9412  -0.5560   2.1045   4.1773

          k =-0.3750 1.6250-0.3750 (   763 PWs)   bands (ev):

    -4.1501   0.1448   4.9632   4.9632

          k =-0.3750-1.1250-0.3750 (   763 PWs)   bands (ev):

    -2.9412  -0.5560   2.1045   4.1773

          k =-0.3750-0.6250-0.3750 (   760 PWs)   bands (ev):

    -3.4391  -0.6463   3.7816   4.4960

     highest occupied level (ev):     5.7530

     Writing output data file silicon.10.314.save

                                                                                

     bravais-lattice index     =            2
     lattice parameter (alat)  =      10.3140  a.u.
     unit-cell volume          =     274.2972 (a.u.)^3
     number of atoms/cell      =            2
     number of atomic types    =            1
     kinetic-energy cut-off    =      30.0000  Ry
     charge density cut-off    =     240.0000  Ry
     convergence threshold     =      1.0E-12
     beta                      =       0.7000
     number of iterations used =            4
     Exchange-correlation      = SLA  PW   PBE  PBE ( 1  4  3  4 0 0)


     celldm(1)=   10.31400  celldm(2)=    0.00000  celldm(3)=    0.00000
     celldm(4)=    0.00000  celldm(5)=    0.00000  celldm(6)=    0.00000

     crystal axes: (cart. coord. in units of alat)
               a(1) = ( -0.5000  0.0000  0.5000 )  
               a(2) = (  0.0000  0.5000  0.5000 )  
               a(3) = ( -0.5000  0.5000  0.0000 )  

     reciprocal axes: (cart. coord. in units 2 pi/alat)
               b(1) = ( -1.0000 -1.0000  1.0000 )  
               b(2) = (  1.0000  1.0000  1.0000 )  
               b(3) = ( -1.0000  1.0000 -1.0000 )  


     Atoms inside the unit cell: 

     Cartesian axes

     site n.  atom      mass           positions (alat units)
        1     Si  28.0860   tau(    1) = (    0.00000    0.00000    0.00000  )
        2     Si  28.0860   tau(    2) = (    0.25000    0.25000    0.25000  )

     Computing dynamical matrix for 
                    q = (   0.0000000   0.5000000   0.0000000 )

      8 Sym.Ops. (no q -> -q+G )


     G cutoff =  646.7043  (   4288 G-vectors)     FFT grid: ( 36, 36, 36)
     G cutoff =  323.3522  (   1520 G-vectors)  smooth grid: ( 25, 25, 25)
     number of k points=    80

     PseudoPot. # 1 for Si read from file:
     /home/s1333534/quantum_espresso/qe-6.1/pseudo/si_pbe_v1.uspp.F.UPF.txt
     MD5 check sum: a056efeee980c13900f22a371efd63c1
     Pseudo is Ultrasoft + core correction, Zval =  4.0
     Generated by new atomic code, or converted to UPF format
     Using radial grid of  899 points,  6 beta functions with: 
                l(1) =   0
                l(2) =   0
                l(3) =   1
                l(4) =   1
                l(5) =   2
                l(6) =   2
     Q(r) pseudized with  8 coefficients,  rinner =    0.900   0.900   0.900
                                                       0.900   0.900

     Mode symmetry, C_4v (4mm)  point group:


     Atomic displacements:
     There are   4 irreducible representations

     Representation     1      1 modes -A_1  G_1 D_1  To be done

     Representation     2      1 modes -B_2  G_4 D_2'  To be done

     Representation     3      2 modes -E    G_5 D_5  To be done

     Representation     4      2 modes -E    G_5 D_5  To be done



     Alpha used in Ewald sum =   2.5000
     PHONON       :    38.35s CPU        51.67s WALL



     Representation #  1 mode #   1

     Self-consistent Calculation

      iter #   1 total cpu time :    52.0 secs   av.it.:   6.2
      thresh= 1.000E-02 alpha_mix =  0.700 |ddv_scf|^2 =  5.154E-04

      iter #   2 total cpu time :    52.5 secs   av.it.:   9.2
      thresh= 2.270E-03 alpha_mix =  0.700 |ddv_scf|^2 =  6.823E-03

      iter #   3 total cpu time :    52.9 secs   av.it.:   7.3
      thresh= 8.260E-03 alpha_mix =  0.700 |ddv_scf|^2 =  1.031E-08

      iter #   4 total cpu time :    53.5 secs   av.it.:  10.1
      thresh= 1.016E-05 alpha_mix =  0.700 |ddv_scf|^2 =  1.008E-09

      iter #   5 total cpu time :    54.0 secs   av.it.:   9.6
      thresh= 3.175E-06 alpha_mix =  0.700 |ddv_scf|^2 =  1.152E-10

      iter #   6 total cpu time :    54.4 secs   av.it.:   9.3
      thresh= 1.073E-06 alpha_mix =  0.700 |ddv_scf|^2 =  3.215E-13

     End of self-consistent calculation

     Convergence has been achieved 


     Representation #  2 mode #   2

     Self-consistent Calculation

      iter #   1 total cpu time :    55.1 secs   av.it.:   5.1
      thresh= 1.000E-02 alpha_mix =  0.700 |ddv_scf|^2 =  8.123E-07

      iter #   2 total cpu time :    55.6 secs   av.it.:  10.4
      thresh= 9.013E-05 alpha_mix =  0.700 |ddv_scf|^2 =  2.208E-07

      iter #   3 total cpu time :    56.1 secs   av.it.:   9.9
      thresh= 4.699E-05 alpha_mix =  0.700 |ddv_scf|^2 =  2.245E-09

      iter #   4 total cpu time :    56.6 secs   av.it.:  10.1
      thresh= 4.738E-06 alpha_mix =  0.700 |ddv_scf|^2 =  8.711E-11

      iter #   5 total cpu time :    57.0 secs   av.it.:  10.3
      thresh= 9.334E-07 alpha_mix =  0.700 |ddv_scf|^2 =  5.205E-13

     End of self-consistent calculation

     Convergence has been achieved 


     Representation #  3 modes #   3  4

     Self-consistent Calculation

      iter #   1 total cpu time :    58.0 secs   av.it.:   5.2
      thresh= 1.000E-02 alpha_mix =  0.700 |ddv_scf|^2 =  1.441E-07

      iter #   2 total cpu time :    59.2 secs   av.it.:  11.5
      thresh= 3.796E-05 alpha_mix =  0.700 |ddv_scf|^2 =  1.985E-08

      iter #   3 total cpu time :    60.2 secs   av.it.:  11.1
      thresh= 1.409E-05 alpha_mix =  0.700 |ddv_scf|^2 =  3.344E-10

      iter #   4 total cpu time :    61.1 secs   av.it.:  10.7
      thresh= 1.829E-06 alpha_mix =  0.700 |ddv_scf|^2 =  7.817E-13

     End of self-consistent calculation

     Convergence has been achieved 


     Representation #  4 modes #   5  6

     Self-consistent Calculation

      iter #   1 total cpu time :    61.9 secs   av.it.:   5.3
      thresh= 1.000E-02 alpha_mix =  0.700 |ddv_scf|^2 =  1.321E-07

      iter #   2 total cpu time :    62.8 secs   av.it.:  11.4
      thresh= 3.634E-05 alpha_mix =  0.700 |ddv_scf|^2 =  1.771E-08

      iter #   3 total cpu time :    63.7 secs   av.it.:  11.2
      thresh= 1.331E-05 alpha_mix =  0.700 |ddv_scf|^2 =  3.425E-10

      iter #   4 total cpu time :    64.6 secs   av.it.:  11.0
      thresh= 1.851E-06 alpha_mix =  0.700 |ddv_scf|^2 =  8.415E-13

     End of self-consistent calculation

     Convergence has been achieved 

     Number of q in the star =    6
     List of q in the star:
          1   0.000000000   0.500000000   0.000000000
          2   0.000000000  -0.500000000   0.000000000
          3   0.500000000   0.000000000   0.000000000
          4   0.000000000   0.000000000   0.500000000
          5   0.000000000   0.000000000  -0.500000000
          6  -0.500000000   0.000000000   0.000000000

     Diagonalizing the dynamical matrix

     q = (    0.000000000   0.500000000   0.000000000 ) 

 **************************************************************************
     freq (    1) =       3.757257 [THz] =     125.328609 [cm-1]
     freq (    2) =       3.757257 [THz] =     125.328609 [cm-1]
     freq (    3) =       7.101727 [THz] =     236.888102 [cm-1]
     freq (    4) =      13.921247 [THz] =     464.362801 [cm-1]
     freq (    5) =      13.921247 [THz] =     464.362801 [cm-1]
     freq (    6) =      14.536640 [THz] =     484.890128 [cm-1]
 **************************************************************************

     Mode symmetry, C_4v (4mm)  point group:

     freq (  1 -  2) =        125.3  [cm-1]   --> E    G_5 D_5       
     freq (  3 -  3) =        236.9  [cm-1]   --> A_1  G_1 D_1       
     freq (  4 -  5) =        464.4  [cm-1]   --> E    G_5 D_5       
     freq (  6 -  6) =        484.9  [cm-1]   --> B_2  G_4 D_2'      

     Calculation of q =    0.7500000  -0.2500000   0.7500000

   Info: using nr1, nr2, nr3 values from input

   Info: using nr1, nr2, nr3 values from input

     Parallelization info
     --------------------
     sticks:   dense  smooth     PW     G-vecs:    dense   smooth      PW
     Min         217     109     40                 4288     1520     362
     Max         219     111     41                 4289     1521     366
     Sum         871     439    163                17153     6081    1459



     bravais-lattice index     =            2
     lattice parameter (alat)  =      10.3140  a.u.
     unit-cell volume          =     274.2972 (a.u.)^3
     number of atoms/cell      =            2
     number of atomic types    =            1
     number of electrons       =         8.00
     number of Kohn-Sham states=            4
     kinetic-energy cutoff     =      30.0000  Ry
     charge density cutoff     =     240.0000  Ry
     Exchange-correlation      = SLA  PW   PBE  PBE ( 1  4  3  4 0 0)

     celldm(1)=  10.314000  celldm(2)=   0.000000  celldm(3)=   0.000000
     celldm(4)=   0.000000  celldm(5)=   0.000000  celldm(6)=   0.000000

     crystal axes: (cart. coord. in units of alat)
               a(1) = (  -0.500000   0.000000   0.500000 )  
               a(2) = (   0.000000   0.500000   0.500000 )  
               a(3) = (  -0.500000   0.500000   0.000000 )  

     reciprocal axes: (cart. coord. in units 2 pi/alat)
               b(1) = ( -1.000000 -1.000000  1.000000 )  
               b(2) = (  1.000000  1.000000  1.000000 )  
               b(3) = ( -1.000000  1.000000 -1.000000 )  


     PseudoPot. # 1 for Si read from file:
     /home/s1333534/quantum_espresso/qe-6.1/pseudo/si_pbe_v1.uspp.F.UPF.txt
     MD5 check sum: a056efeee980c13900f22a371efd63c1
     Pseudo is Ultrasoft + core correction, Zval =  4.0
     Generated by new atomic code, or converted to UPF format
     Using radial grid of  899 points,  6 beta functions with: 
                l(1) =   0
                l(2) =   0
                l(3) =   1
                l(4) =   1
                l(5) =   2
                l(6) =   2
     Q(r) pseudized with  8 coefficients,  rinner =    0.900   0.900   0.900
                                                       0.900   0.900

     atomic species   valence    mass     pseudopotential
        Si             4.00    28.08600     Si( 1.00)

     48 Sym. Ops., with inversion, found



   Cartesian axes

     site n.     atom                  positions (alat units)
         1           Si  tau(   1) = (   0.0000000   0.0000000   0.0000000  )
         2           Si  tau(   2) = (   0.2500000   0.2500000   0.2500000  )

     number of k points=   288

     Number of k-points >= 100: set verbosity='high' to print them.

     Dense  grid:    17153 G-vectors     FFT dimensions: (  36,  36,  36)

     Smooth grid:     6081 G-vectors     FFT dimensions: (  25,  25,  25)

     Estimated max dynamical RAM per process >       1.51MB

     Estimated total allocated dynamical RAM >       6.06MB

     The potential is recalculated from file :
     ./_ph0/silicon.10.314.save/charge-density.dat

     Starting wfc are    8 atomic wfcs

     Band Structure Calculation
     Davidson diagonalization with overlap

     ethr =  1.25E-10,  avg # of iterations = 12.1

     total cpu time spent up to now is        6.7 secs

     End of band structure calculation

     Number of k-points >= 100: set verbosity='high' to print the bands.

     highest occupied level (ev):     5.7530

     Writing output data file silicon.10.314.save

                                                                                

     bravais-lattice index     =            2
     lattice parameter (alat)  =      10.3140  a.u.
     unit-cell volume          =     274.2972 (a.u.)^3
     number of atoms/cell      =            2
     number of atomic types    =            1
     kinetic-energy cut-off    =      30.0000  Ry
     charge density cut-off    =     240.0000  Ry
     convergence threshold     =      1.0E-12
     beta                      =       0.7000
     number of iterations used =            4
     Exchange-correlation      = SLA  PW   PBE  PBE ( 1  4  3  4 0 0)


     celldm(1)=   10.31400  celldm(2)=    0.00000  celldm(3)=    0.00000
     celldm(4)=    0.00000  celldm(5)=    0.00000  celldm(6)=    0.00000

     crystal axes: (cart. coord. in units of alat)
               a(1) = ( -0.5000  0.0000  0.5000 )  
               a(2) = (  0.0000  0.5000  0.5000 )  
               a(3) = ( -0.5000  0.5000  0.0000 )  

     reciprocal axes: (cart. coord. in units 2 pi/alat)
               b(1) = ( -1.0000 -1.0000  1.0000 )  
               b(2) = (  1.0000  1.0000  1.0000 )  
               b(3) = ( -1.0000  1.0000 -1.0000 )  


     Atoms inside the unit cell: 

     Cartesian axes

     site n.  atom      mass           positions (alat units)
        1     Si  28.0860   tau(    1) = (    0.00000    0.00000    0.00000  )
        2     Si  28.0860   tau(    2) = (    0.25000    0.25000    0.25000  )

     Computing dynamical matrix for 
                    q = (   0.7500000  -0.2500000   0.7500000 )

      2 Sym.Ops. (no q -> -q+G )


     G cutoff =  646.7043  (   4288 G-vectors)     FFT grid: ( 36, 36, 36)
     G cutoff =  323.3522  (   1520 G-vectors)  smooth grid: ( 25, 25, 25)
     number of k points=   288

     PseudoPot. # 1 for Si read from file:
     /home/s1333534/quantum_espresso/qe-6.1/pseudo/si_pbe_v1.uspp.F.UPF.txt
     MD5 check sum: a056efeee980c13900f22a371efd63c1
     Pseudo is Ultrasoft + core correction, Zval =  4.0
     Generated by new atomic code, or converted to UPF format
     Using radial grid of  899 points,  6 beta functions with: 
                l(1) =   0
                l(2) =   0
                l(3) =   1
                l(4) =   1
                l(5) =   2
                l(6) =   2
     Q(r) pseudized with  8 coefficients,  rinner =    0.900   0.900   0.900
                                                       0.900   0.900

     Mode symmetry, C_s (m)     point group:


     Atomic displacements:
     There are   6 irreducible representations

     Representation     1      1 modes -A'  To be done

     Representation     2      1 modes -A'  To be done

     Representation     3      1 modes -A'  To be done

     Representation     4      1 modes -A'  To be done

     Representation     5      1 modes -A''  To be done

     Representation     6      1 modes -A''  To be done



     Alpha used in Ewald sum =   2.5000
     PHONON       :  0m52.14s CPU     1m 9.84s WALL



     Representation #  1 mode #   1

     Self-consistent Calculation

      iter #   1 total cpu time :    70.7 secs   av.it.:   5.7
      thresh= 1.000E-02 alpha_mix =  0.700 |ddv_scf|^2 =  1.051E-05

      iter #   2 total cpu time :    72.1 secs   av.it.:  10.6
      thresh= 3.241E-04 alpha_mix =  0.700 |ddv_scf|^2 =  2.799E-05

      iter #   3 total cpu time :    73.3 secs   av.it.:   9.2
      thresh= 5.290E-04 alpha_mix =  0.700 |ddv_scf|^2 =  1.878E-07

      iter #   4 total cpu time :    74.8 secs   av.it.:  10.0
      thresh= 4.334E-05 alpha_mix =  0.700 |ddv_scf|^2 =  3.708E-09

      iter #   5 total cpu time :    76.2 secs   av.it.:  10.4
      thresh= 6.090E-06 alpha_mix =  0.700 |ddv_scf|^2 =  6.398E-10

      iter #   6 total cpu time :    77.5 secs   av.it.:  10.3
      thresh= 2.529E-06 alpha_mix =  0.700 |ddv_scf|^2 =  9.559E-12

      iter #   7 total cpu time :    79.1 secs   av.it.:  10.6
      thresh= 3.092E-07 alpha_mix =  0.700 |ddv_scf|^2 =  3.582E-13

     End of self-consistent calculation

     Convergence has been achieved 


     Representation #  2 mode #   2

     Self-consistent Calculation

      iter #   1 total cpu time :    80.2 secs   av.it.:   5.8
      thresh= 1.000E-02 alpha_mix =  0.700 |ddv_scf|^2 =  1.883E-05

      iter #   2 total cpu time :    81.5 secs   av.it.:  10.4
      thresh= 4.339E-04 alpha_mix =  0.700 |ddv_scf|^2 =  5.449E-05

      iter #   3 total cpu time :    82.7 secs   av.it.:   9.0
      thresh= 7.381E-04 alpha_mix =  0.700 |ddv_scf|^2 =  1.261E-07

      iter #   4 total cpu time :    84.0 secs   av.it.:  10.2
      thresh= 3.551E-05 alpha_mix =  0.700 |ddv_scf|^2 =  4.187E-09

      iter #   5 total cpu time :    85.3 secs   av.it.:  10.4
      thresh= 6.471E-06 alpha_mix =  0.700 |ddv_scf|^2 =  8.539E-10

      iter #   6 total cpu time :    86.7 secs   av.it.:  10.3
      thresh= 2.922E-06 alpha_mix =  0.700 |ddv_scf|^2 =  8.813E-12

      iter #   7 total cpu time :    88.1 secs   av.it.:  10.6
      thresh= 2.969E-07 alpha_mix =  0.700 |ddv_scf|^2 =  3.089E-13

     End of self-consistent calculation

     Convergence has been achieved 


     Representation #  3 mode #   3

     Self-consistent Calculation

      iter #   1 total cpu time :    89.1 secs   av.it.:   5.7
      thresh= 1.000E-02 alpha_mix =  0.700 |ddv_scf|^2 =  1.476E-05

      iter #   2 total cpu time :    90.5 secs   av.it.:  10.4
      thresh= 3.842E-04 alpha_mix =  0.700 |ddv_scf|^2 =  4.012E-05

      iter #   3 total cpu time :    91.7 secs   av.it.:   9.0
      thresh= 6.334E-04 alpha_mix =  0.700 |ddv_scf|^2 =  2.202E-07

      iter #   4 total cpu time :    93.0 secs   av.it.:  10.0
      thresh= 4.693E-05 alpha_mix =  0.700 |ddv_scf|^2 =  4.268E-09

      iter #   5 total cpu time :    94.3 secs   av.it.:  10.5
      thresh= 6.533E-06 alpha_mix =  0.700 |ddv_scf|^2 =  8.333E-10

      iter #   6 total cpu time :    95.6 secs   av.it.:  10.3
      thresh= 2.887E-06 alpha_mix =  0.700 |ddv_scf|^2 =  6.149E-12

      iter #   7 total cpu time :    96.9 secs   av.it.:  10.5
      thresh= 2.480E-07 alpha_mix =  0.700 |ddv_scf|^2 =  1.790E-13

     End of self-consistent calculation

     Convergence has been achieved 


     Representation #  4 mode #   4

     Self-consistent Calculation

      iter #   1 total cpu time :    97.9 secs   av.it.:   5.5
      thresh= 1.000E-02 alpha_mix =  0.700 |ddv_scf|^2 =  6.429E-06

      iter #   2 total cpu time :    99.3 secs   av.it.:  10.7
      thresh= 2.536E-04 alpha_mix =  0.700 |ddv_scf|^2 =  1.360E-05

      iter #   3 total cpu time :   100.6 secs   av.it.:   9.5
      thresh= 3.688E-04 alpha_mix =  0.700 |ddv_scf|^2 =  2.944E-07

      iter #   4 total cpu time :   101.9 secs   av.it.:   9.8
      thresh= 5.426E-05 alpha_mix =  0.700 |ddv_scf|^2 =  3.658E-09

      iter #   5 total cpu time :   103.2 secs   av.it.:  10.5
      thresh= 6.049E-06 alpha_mix =  0.700 |ddv_scf|^2 =  6.845E-10

      iter #   6 total cpu time :   104.9 secs   av.it.:  10.4
      thresh= 2.616E-06 alpha_mix =  0.700 |ddv_scf|^2 =  4.038E-12

      iter #   7 total cpu time :   106.2 secs   av.it.:  10.7
      thresh= 2.009E-07 alpha_mix =  0.700 |ddv_scf|^2 =  1.829E-13

     End of self-consistent calculation

     Convergence has been achieved 


     Representation #  5 mode #   5

     Self-consistent Calculation

      iter #   1 total cpu time :   107.2 secs   av.it.:   5.2
      thresh= 1.000E-02 alpha_mix =  0.700 |ddv_scf|^2 =  6.660E-07

      iter #   2 total cpu time :   108.6 secs   av.it.:  10.4
      thresh= 8.161E-05 alpha_mix =  0.700 |ddv_scf|^2 =  1.086E-07

      iter #   3 total cpu time :   109.9 secs   av.it.:  10.1
      thresh= 3.295E-05 alpha_mix =  0.700 |ddv_scf|^2 =  1.449E-09

      iter #   4 total cpu time :   111.1 secs   av.it.:   9.6
      thresh= 3.807E-06 alpha_mix =  0.700 |ddv_scf|^2 =  3.378E-12

      iter #   5 total cpu time :   112.4 secs   av.it.:  10.0
      thresh= 1.838E-07 alpha_mix =  0.700 |ddv_scf|^2 =  9.462E-14

     End of self-consistent calculation

     Convergence has been achieved 


     Representation #  6 mode #   6

     Self-consistent Calculation

      iter #   1 total cpu time :   113.4 secs   av.it.:   5.2
      thresh= 1.000E-02 alpha_mix =  0.700 |ddv_scf|^2 =  6.660E-07

      iter #   2 total cpu time :   114.7 secs   av.it.:  10.4
[...]
        k(   59) = (  -0.8750000   0.1250000  -0.1250000), wk =   0.0625000
        k(   60) = (  -1.3750000  -0.8750000  -0.1250000), wk =   0.0000000
        k(   61) = (  -1.1250000   0.3750000  -0.3750000), wk =   0.0625000
        k(   62) = (  -1.6250000  -0.6250000  -0.3750000), wk =   0.0000000
        k(   63) = (  -0.3750000   0.3750000   1.1250000), wk =   0.0625000
        k(   64) = (  -0.8750000  -0.6250000   1.1250000), wk =   0.0000000

     Dense  grid:    17153 G-vectors     FFT dimensions: (  36,  36,  36)

     Smooth grid:     6081 G-vectors     FFT dimensions: (  25,  25,  25)

     Estimated max dynamical RAM per process >       1.51MB

     Estimated total allocated dynamical RAM >       6.06MB

     The potential is recalculated from file :
     ./_ph0/silicon.10.314.save/charge-density.dat

     Starting wfc are    8 atomic wfcs

     Band Structure Calculation
     Davidson diagonalization with overlap

     ethr =  1.25E-10,  avg # of iterations = 12.1

     total cpu time spent up to now is       10.6 secs

     End of band structure calculation

          k =-0.1250 0.1250 0.1250 (   764 PWs)   bands (ev):

    -5.6171   4.4439   5.7530   5.7530

          k =-0.6250-0.8750 0.1250 (   754 PWs)   bands (ev):

    -2.4021  -0.8557   2.0439   3.1263

          k =-0.3750 0.3750-0.1250 (   767 PWs)   bands (ev):

    -4.5856   1.4428   3.7583   5.2716

          k =-0.8750-0.6250-0.1250 (   754 PWs)   bands (ev):

    -2.4021  -0.8557   2.0439   3.1263

          k = 0.3750-0.3750 0.6250 (   760 PWs)   bands (ev):

    -3.4391  -0.6463   3.7816   4.4960

          k =-0.1250-1.3750 0.6250 (   763 PWs)   bands (ev):

    -2.9412  -0.5560   2.1045   4.1773

          k = 0.1250-0.1250 0.3750 (   766 PWs)   bands (ev):

    -5.0869   2.8255   4.7397   4.8068

          k =-0.3750-1.1250 0.3750 (   763 PWs)   bands (ev):

    -2.9412  -0.5560   2.1045   4.1773

          k =-0.1250 0.6250 0.1250 (   762 PWs)   bands (ev):

    -4.0508   1.1135   3.4069   3.8619

          k =-0.6250-0.3750 0.1250 (   766 PWs)   bands (ev):

    -3.6327   0.2335   2.7630   4.1376

          k = 0.6250-0.1250 0.8750 (   754 PWs)   bands (ev):

    -2.4021  -0.8557   2.0439   3.1263

          k = 0.1250-1.1250 0.8750 (   762 PWs)   bands (ev):

    -2.5719  -0.7572   2.6574   3.3931

          k = 0.3750 0.1250 0.6250 (   766 PWs)   bands (ev):

    -3.6327   0.2335   2.7630   4.1376

          k =-0.1250-0.8750 0.6250 (   754 PWs)   bands (ev):

    -2.4021  -0.8557   2.0439   3.1263

          k =-0.1250-0.8750 0.1250 (   762 PWs)   bands (ev):

    -2.5719  -0.7572   2.6574   3.3931

          k =-0.6250-1.8750 0.1250 (   762 PWs)   bands (ev):

    -4.0508   1.1135   3.4069   3.8619

          k =-0.3750 0.3750 0.3750 (   763 PWs)   bands (ev):

    -4.1501   0.1448   4.9632   4.9632

          k =-0.8750-0.6250 0.3750 (   766 PWs)   bands (ev):

    -3.6327   0.2335   2.7630   4.1376

          k = 0.3750-0.3750 1.1250 (   763 PWs)   bands (ev):

    -2.9412  -0.5560   2.1045   4.1773

          k =-0.1250-1.3750 1.1250 (   754 PWs)   bands (ev):

    -2.4021  -0.8557   2.0439   3.1263

          k = 0.1250-0.3750 0.3750 (   767 PWs)   bands (ev):

    -4.5856   1.4428   3.7583   5.2716

          k =-0.3750-1.3750 0.3750 (   760 PWs)   bands (ev):

    -3.4391  -0.6463   3.7816   4.4960

          k = 0.3750-0.3750-0.1250 (   767 PWs)   bands (ev):

    -4.5856   1.4428   3.7583   5.2716

          k =-0.1250-1.3750-0.1250 (   762 PWs)   bands (ev):

    -4.0508   1.1135   3.4069   3.8619

          k =-0.6250 0.3750-0.3750 (   760 PWs)   bands (ev):

    -3.4391  -0.6463   3.7816   4.4960

          k =-1.1250-0.6250-0.3750 (   766 PWs)   bands (ev):

    -3.6327   0.2335   2.7630   4.1376

          k =-0.3750 0.3750 0.6250 (   760 PWs)   bands (ev):

    -3.4391  -0.6463   3.7816   4.4960

          k =-0.8750-0.6250 0.6250 (   767 PWs)   bands (ev):

    -4.5856   1.4428   3.7583   5.2716

          k =-0.3750 0.1250-0.1250 (   766 PWs)   bands (ev):

    -5.0869   2.8255   4.7397   4.8068

          k =-0.8750-0.8750-0.1250 (   762 PWs)   bands (ev):

    -2.5719  -0.7572   2.6574   3.3931

          k =-0.1250 0.1250 0.3750 (   766 PWs)   bands (ev):

    -5.0869   2.8255   4.7397   4.8068

          k =-0.6250-0.8750 0.3750 (   766 PWs)   bands (ev):

    -3.6327   0.2335   2.7630   4.1376

          k = 0.1250 0.6250-0.1250 (   762 PWs)   bands (ev):

    -4.0508   1.1135   3.4069   3.8619

          k =-0.3750-0.3750-0.1250 (   767 PWs)   bands (ev):

    -4.5856   1.4428   3.7583   5.2716

          k = 0.6250 0.1250-0.1250 (   762 PWs)   bands (ev):

    -4.0508   1.1135   3.4069   3.8619

          k = 0.1250-0.8750-0.1250 (   762 PWs)   bands (ev):

    -2.5719  -0.7572   2.6574   3.3931

          k =-0.8750 0.1250-0.6250 (   754 PWs)   bands (ev):

    -2.4021  -0.8557   2.0439   3.1263

          k =-1.3750-0.8750-0.6250 (   767 PWs)   bands (ev):

    -4.5856   1.4428   3.7583   5.2716

          k = 0.8750-0.1250 0.6250 (   754 PWs)   bands (ev):

    -2.4021  -0.8557   2.0439   3.1263

          k = 0.3750-1.1250 0.6250 (   766 PWs)   bands (ev):

    -3.6327   0.2335   2.7630   4.1376

          k =-0.6250 0.1250 0.8750 (   754 PWs)   bands (ev):

    -2.4021  -0.8557   2.0439   3.1263

          k =-1.1250-0.8750 0.8750 (   764 PWs)   bands (ev):

    -5.6171   4.4439   5.7530   5.7530

          k =-0.1250 0.8750 0.6250 (   754 PWs)   bands (ev):

    -2.4021  -0.8557   2.0439   3.1263

          k =-0.6250-0.1250 0.6250 (   763 PWs)   bands (ev):

    -2.9412  -0.5560   2.1045   4.1773

          k = 0.1250 0.8750-0.6250 (   754 PWs)   bands (ev):

    -2.4021  -0.8557   2.0439   3.1263

          k =-0.3750-0.1250-0.6250 (   766 PWs)   bands (ev):

    -3.6327   0.2335   2.7630   4.1376

          k =-0.6250-0.1250-0.3750 (   766 PWs)   bands (ev):

    -3.6327   0.2335   2.7630   4.1376

          k =-1.1250-1.1250-0.3750 (   762 PWs)   bands (ev):

    -4.0508   1.1135   3.4069   3.8619

          k = 0.6250 0.1250 0.3750 (   766 PWs)   bands (ev):

    -3.6327   0.2335   2.7630   4.1376

          k = 0.1250-0.8750 0.3750 (   754 PWs)   bands (ev):

    -2.4021  -0.8557   2.0439   3.1263

          k =-0.3750-0.1250 0.6250 (   766 PWs)   bands (ev):

    -3.6327   0.2335   2.7630   4.1376

          k =-0.8750-1.1250 0.6250 (   766 PWs)   bands (ev):

    -5.0869   2.8255   4.7397   4.8068

          k = 0.1250 0.6250 0.3750 (   766 PWs)   bands (ev):

    -3.6327   0.2335   2.7630   4.1376

          k =-0.3750-0.3750 0.3750 (   763 PWs)   bands (ev):

    -4.1501   0.1448   4.9632   4.9632

          k =-0.1250 0.6250-0.3750 (   766 PWs)   bands (ev):

    -3.6327   0.2335   2.7630   4.1376

          k =-0.6250-0.3750-0.3750 (   760 PWs)   bands (ev):

    -3.4391  -0.6463   3.7816   4.4960

          k = 0.1250-0.8750-0.1250 (   762 PWs)   bands (ev):

    -2.5719  -0.7572   2.6574   3.3931

          k =-0.3750-1.8750-0.1250 (   766 PWs)   bands (ev):

    -5.0869   2.8255   4.7397   4.8068

          k =-0.8750 0.1250-0.1250 (   762 PWs)   bands (ev):

    -2.5719  -0.7572   2.6574   3.3931

          k =-1.3750-0.8750-0.1250 (   754 PWs)   bands (ev):

    -2.4021  -0.8557   2.0439   3.1263

          k =-1.1250 0.3750-0.3750 (   763 PWs)   bands (ev):

    -2.9412  -0.5560   2.1045   4.1773

          k =-1.6250-0.6250-0.3750 (   760 PWs)   bands (ev):

    -3.4391  -0.6463   3.7816   4.4960

          k =-0.3750 0.3750 1.1250 (   763 PWs)   bands (ev):

    -2.9412  -0.5560   2.1045   4.1773

          k =-0.8750-0.6250 1.1250 (   766 PWs)   bands (ev):

    -5.0869   2.8255   4.7397   4.8068

     highest occupied level (ev):     5.7530

     Writing output data file silicon.10.314.save

                                                                                

     bravais-lattice index     =            2
     lattice parameter (alat)  =      10.3140  a.u.
     unit-cell volume          =     274.2972 (a.u.)^3
     number of atoms/cell      =            2
     number of atomic types    =            1
     kinetic-energy cut-off    =      30.0000  Ry
     charge density cut-off    =     240.0000  Ry
     convergence threshold     =      1.0E-12
     beta                      =       0.7000
     number of iterations used =            4
     Exchange-correlation      = SLA  PW   PBE  PBE ( 1  4  3  4 0 0)


     celldm(1)=   10.31400  celldm(2)=    0.00000  celldm(3)=    0.00000
     celldm(4)=    0.00000  celldm(5)=    0.00000  celldm(6)=    0.00000

     crystal axes: (cart. coord. in units of alat)
               a(1) = ( -0.5000  0.0000  0.5000 )  
               a(2) = (  0.0000  0.5000  0.5000 )  
               a(3) = ( -0.5000  0.5000  0.0000 )  

     reciprocal axes: (cart. coord. in units 2 pi/alat)
               b(1) = ( -1.0000 -1.0000  1.0000 )  
               b(2) = (  1.0000  1.0000  1.0000 )  
               b(3) = ( -1.0000  1.0000 -1.0000 )  


     Atoms inside the unit cell: 

     Cartesian axes

     site n.  atom      mass           positions (alat units)
        1     Si  28.0860   tau(    1) = (    0.00000    0.00000    0.00000  )
        2     Si  28.0860   tau(    2) = (    0.25000    0.25000    0.25000  )

     Computing dynamical matrix for 
                    q = (  -0.5000000  -1.0000000   0.0000000 )

      8 Sym.Ops. (no q -> -q+G )


     G cutoff =  646.7043  (   4288 G-vectors)     FFT grid: ( 36, 36, 36)
     G cutoff =  323.3522  (   1520 G-vectors)  smooth grid: ( 25, 25, 25)
     number of k points=    64

     PseudoPot. # 1 for Si read from file:
     /home/s1333534/quantum_espresso/qe-6.1/pseudo/si_pbe_v1.uspp.F.UPF.txt
     MD5 check sum: a056efeee980c13900f22a371efd63c1
     Pseudo is Ultrasoft + core correction, Zval =  4.0
     Generated by new atomic code, or converted to UPF format
     Using radial grid of  899 points,  6 beta functions with: 
                l(1) =   0
                l(2) =   0
                l(3) =   1
                l(4) =   1
                l(5) =   2
                l(6) =   2
     Q(r) pseudized with  8 coefficients,  rinner =    0.900   0.900   0.900
                                                       0.900   0.900


     Atomic displacements:
     There are   3 irreducible representations

     Representation     1      2 modes -  To be done

     Representation     2      2 modes -  To be done

     Representation     3      2 modes -  To be done



     Alpha used in Ewald sum =   2.5000
     PHONON       :  2m 3.77s CPU     2m37.97s WALL



     Representation #  1 modes #   1  2

     Self-consistent Calculation

      iter #   1 total cpu time :   158.6 secs   av.it.:   5.7
      thresh= 1.000E-02 alpha_mix =  0.700 |ddv_scf|^2 =  1.088E-06

      iter #   2 total cpu time :   159.5 secs   av.it.:  11.6
      thresh= 1.043E-04 alpha_mix =  0.700 |ddv_scf|^2 =  6.161E-07

      iter #   3 total cpu time :   160.3 secs   av.it.:  11.0
      thresh= 7.849E-05 alpha_mix =  0.700 |ddv_scf|^2 =  5.904E-10

      iter #   4 total cpu time :   161.1 secs   av.it.:  11.0
      thresh= 2.430E-06 alpha_mix =  0.700 |ddv_scf|^2 =  2.623E-12

      iter #   5 total cpu time :   161.8 secs   av.it.:  11.1
      thresh= 1.619E-07 alpha_mix =  0.700 |ddv_scf|^2 =  6.914E-14

     End of self-consistent calculation

     Convergence has been achieved 


     Representation #  2 modes #   3  4

     Self-consistent Calculation

      iter #   1 total cpu time :   162.5 secs   av.it.:   5.7
      thresh= 1.000E-02 alpha_mix =  0.700 |ddv_scf|^2 =  1.684E-06

      iter #   2 total cpu time :   163.4 secs   av.it.:  11.6
      thresh= 1.298E-04 alpha_mix =  0.700 |ddv_scf|^2 =  2.272E-06

      iter #   3 total cpu time :   164.1 secs   av.it.:  10.9
      thresh= 1.507E-04 alpha_mix =  0.700 |ddv_scf|^2 =  6.976E-10

      iter #   4 total cpu time :   164.9 secs   av.it.:  11.0
      thresh= 2.641E-06 alpha_mix =  0.700 |ddv_scf|^2 =  1.050E-11

      iter #   5 total cpu time :   165.7 secs   av.it.:  11.1
      thresh= 3.241E-07 alpha_mix =  0.700 |ddv_scf|^2 =  1.768E-13

     End of self-consistent calculation

     Convergence has been achieved 


     Representation #  3 modes #   5  6

     Self-consistent Calculation

      iter #   1 total cpu time :   166.4 secs   av.it.:   5.3
      thresh= 1.000E-02 alpha_mix =  0.700 |ddv_scf|^2 =  4.418E-07

      iter #   2 total cpu time :   167.3 secs   av.it.:  11.6
      thresh= 6.647E-05 alpha_mix =  0.700 |ddv_scf|^2 =  2.582E-07

      iter #   3 total cpu time :   168.1 secs   av.it.:  11.0
      thresh= 5.082E-05 alpha_mix =  0.700 |ddv_scf|^2 =  5.133E-10

      iter #   4 total cpu time :   169.0 secs   av.it.:  11.1
      thresh= 2.266E-06 alpha_mix =  0.700 |ddv_scf|^2 =  6.007E-12

      iter #   5 total cpu time :   169.7 secs   av.it.:  11.1
      thresh= 2.451E-07 alpha_mix =  0.700 |ddv_scf|^2 =  8.338E-14

     End of self-consistent calculation

     Convergence has been achieved 

     Number of q in the star =    6
     List of q in the star:
          1  -0.500000000  -1.000000000   0.000000000
          2   0.000000000   1.000000000   0.500000000
          3   0.000000000  -1.000000000  -0.500000000
          4   0.500000000   1.000000000   0.000000000
          5  -1.000000000  -0.500000000   0.000000000
          6   0.000000000  -0.500000000  -1.000000000

     Diagonalizing the dynamical matrix

     q = (   -0.500000000  -1.000000000   0.000000000 ) 

 **************************************************************************
     freq (    1) =       6.004250 [THz] =     200.280234 [cm-1]
     freq (    2) =       6.004250 [THz] =     200.280234 [cm-1]
     freq (    3) =      10.393225 [THz] =     346.680661 [cm-1]
     freq (    4) =      10.393225 [THz] =     346.680661 [cm-1]
     freq (    5) =      13.670659 [THz] =     456.004087 [cm-1]
     freq (    6) =      13.670659 [THz] =     456.004087 [cm-1]
 **************************************************************************

     init_run     :      1.26s CPU      1.32s WALL (       7 calls)
     electrons    :      7.21s CPU      7.78s WALL (       7 calls)

     Called by init_run:
     wfcinit      :      0.00s CPU      0.03s WALL (       7 calls)
     potinit      :      0.07s CPU      0.09s WALL (       7 calls)

     Called by electrons:
     c_bands      :      7.21s CPU      7.77s WALL (       7 calls)
     v_of_rho     :      0.06s CPU      0.07s WALL (       8 calls)
     newd         :      0.13s CPU      0.13s WALL (       8 calls)

     Called by c_bands:
     init_us_2    :      1.63s CPU      1.57s WALL (   16040 calls)
     cegterg      :      6.02s CPU      6.48s WALL (     796 calls)

     Called by sum_band:

     Called by *egterg:
     h_psi        :     69.00s CPU     74.01s WALL (  154479 calls)
     s_psi        :      5.83s CPU      6.99s WALL (  311360 calls)
     g_psi        :      0.05s CPU      0.07s WALL (    9666 calls)
     cdiaghg      :      0.57s CPU      0.57s WALL (   10462 calls)

     Called by h_psi:
     h_psi:pot    :     68.59s CPU     73.49s WALL (  154479 calls)
     h_psi:calbec :      3.50s CPU      4.09s WALL (  154479 calls)
     vloc_psi     :     60.38s CPU     65.22s WALL (  154479 calls)
     add_vuspsi   :      4.37s CPU      3.70s WALL (  154479 calls)

     General routines
     calbec       :      8.12s CPU      8.73s WALL (  345812 calls)
     fft          :      1.42s CPU      1.49s WALL (    5265 calls)
     ffts         :      0.21s CPU      0.23s WALL (    3320 calls)
     fftw         :     63.61s CPU     67.82s WALL ( 1384096 calls)
     interpolate  :      0.20s CPU      0.23s WALL (     572 calls)
     davcio       :      0.33s CPU      1.37s WALL (   69876 calls)

     Parallel routines
     fft_scatter  :     16.42s CPU     19.75s WALL ( 1392681 calls)

     PHONON       :  2m12.92s CPU     2m50.06s WALL

     INITIALIZATION: 
     phq_setup    :      0.22s CPU      0.44s WALL (       8 calls)
     phq_init     :      7.02s CPU      7.56s WALL (       8 calls)

     phq_init     :      7.02s CPU      7.56s WALL (       8 calls)
     set_drhoc    :      1.82s CPU      1.84s WALL (      24 calls)
     init_vloc    :      0.03s CPU      0.03s WALL (       8 calls)
     init_us_1    :      0.99s CPU      0.99s WALL (       8 calls)
     newd         :      0.13s CPU      0.13s WALL (       8 calls)
     dvanqq       :      1.24s CPU      1.27s WALL (       8 calls)
     drho         :      2.66s CPU      2.77s WALL (       8 calls)

     DYNAMICAL MATRIX:
     dynmat0      :      1.74s CPU      1.88s WALL (       8 calls)
     phqscf       :    112.59s CPU    143.86s WALL (       8 calls)
     dynmatrix    :      0.01s CPU      0.20s WALL (       8 calls)

     phqscf       :    112.59s CPU    143.86s WALL (       8 calls)
     solve_linter :    111.72s CPU    140.82s WALL (      32 calls)
     drhodv       :      0.58s CPU      0.60s WALL (      32 calls)

     dynmat0      :      1.74s CPU      1.88s WALL (       8 calls)
     dynmat_us    :      0.39s CPU      0.39s WALL (       8 calls)
     d2ionq       :      0.04s CPU      0.04s WALL (       8 calls)
     dynmatcc     :      1.28s CPU      1.29s WALL (       8 calls)

     dynmat_us    :      0.39s CPU      0.39s WALL (       8 calls)
     addusdynmat  :      0.00s CPU      0.00s WALL (       8 calls)

     phqscf       :    112.59s CPU    143.86s WALL (       8 calls)
     solve_linter :    111.72s CPU    140.82s WALL (      32 calls)

     solve_linter :    111.72s CPU    140.82s WALL (      32 calls)
     dvqpsi_us    :      2.13s CPU      2.28s WALL (    2508 calls)
     ortho        :      0.91s CPU      1.02s WALL (   13630 calls)
     cgsolve      :     76.80s CPU     83.68s WALL (   13630 calls)
     incdrhoscf   :      6.25s CPU      6.82s WALL (   13630 calls)
     addusddens   :      7.08s CPU      7.14s WALL (     202 calls)
     vpsifft      :      4.53s CPU      4.93s WALL (   11002 calls)
     dv_of_drho   :      1.29s CPU      1.33s WALL (     256 calls)
     mix_pot      :      0.54s CPU     10.59s WALL (     175 calls)
     psymdvscf    :      4.11s CPU      4.16s WALL (     170 calls)
     newdq        :      7.66s CPU      7.72s WALL (     175 calls)
     adddvscf     :      0.47s CPU      0.44s WALL (   11122 calls)
     drhodvus     :      0.01s CPU      0.02s WALL (      32 calls)

     dvqpsi_us    :      2.13s CPU      2.28s WALL (    2508 calls)
     dvqpsi_us_on :      0.91s CPU      0.94s WALL (    2508 calls)

     cgsolve      :     76.80s CPU     83.68s WALL (   13630 calls)
     ch_psi       :     75.63s CPU     81.80s WALL (  143221 calls)

     ch_psi       :     75.63s CPU     81.80s WALL (  143221 calls)
     h_psi        :     69.00s CPU     74.01s WALL (  154479 calls)
     last         :      9.20s CPU      9.36s WALL (  143221 calls)

     h_psi        :     69.00s CPU     74.01s WALL (  154479 calls)
     add_vuspsi   :      4.37s CPU      3.70s WALL (  154479 calls)

     incdrhoscf   :      6.25s CPU      6.82s WALL (   13630 calls)
     addusdbec    :      0.49s CPU      0.54s WALL (   16078 calls)

     drhodvus     :      0.01s CPU      0.02s WALL (      32 calls)

      General routines
     calbec       :      8.12s CPU      8.73s WALL (  345812 calls)
     fft          :      1.42s CPU      1.49s WALL (    5265 calls)
     ffts         :      0.21s CPU      0.23s WALL (    3320 calls)
     fftw         :     63.61s CPU     67.82s WALL ( 1384096 calls)
     davcio       :      0.33s CPU      1.37s WALL (   69876 calls)
     write_rec    :      0.23s CPU     12.67s WALL (     207 calls)


     PHONON       :  2m12.92s CPU     2m50.06s WALL


   This run was terminated on:  15:35:16  10Nov2017            

=------------------------------------------------------------------------------=
   JOB DONE.
=------------------------------------------------------------------------------=
