
     Program PWSCF v.6.1 (svn rev. 13369) starts on 10Nov2017 at 10:31:58 

     This program is part of the open-source Quantum ESPRESSO suite
     for quantum simulation of materials; please cite
         "P. Giannozzi et al., J. Phys.:Condens. Matter 21 395502 (2009);
          URL http://www.quantum-espresso.org", 
     in publications or presentations arising from this work. More details at
     http://www.quantum-espresso.org/quote

     Parallel version (MPI), running on     4 processors
     R & G space division:  proc/nbgrp/npool/nimage =       4
     Waiting for input...
     Reading input from standard input
     Message from routine read_cards :
     DEPRECATED: no units specified in ATOMIC_POSITIONS card
     Message from routine read_cards :
     ATOMIC_POSITIONS: units set to alat

     Current dimensions of program PWSCF are:
     Max number of different atomic species (ntypx) = 10
     Max number of k-points (npk) =  40000
     Max angular momentum in pseudopotentials (lmaxx) =  3

     Subspace diagonalization in iterative solution of the eigenvalue problem:
     a serial algorithm will be used


     Parallelization info
     --------------------
     sticks:   dense  smooth     PW     G-vecs:    dense   smooth      PW
     Min         222     109     37                 4363     1545     309
     Max         223     110     38                 4364     1546     312
     Sum         889     439    151                17453     6183    1243



     bravais-lattice index     =            2
     lattice parameter (alat)  =      10.3540  a.u.
     unit-cell volume          =     277.5010 (a.u.)^3
     number of atoms/cell      =            2
     number of atomic types    =            1
     number of electrons       =         8.00
     number of Kohn-Sham states=            4
     kinetic-energy cutoff     =      30.0000  Ry
     charge density cutoff     =     240.0000  Ry
     convergence threshold     =      1.0E-08
     mixing beta               =       0.7000
     number of iterations used =            8  plain     mixing
     Exchange-correlation      = SLA  PW   PBE  PBE ( 1  4  3  4 0 0)

     celldm(1)=  10.354000  celldm(2)=   0.000000  celldm(3)=   0.000000
     celldm(4)=   0.000000  celldm(5)=   0.000000  celldm(6)=   0.000000

     crystal axes: (cart. coord. in units of alat)
               a(1) = (  -0.500000   0.000000   0.500000 )  
               a(2) = (   0.000000   0.500000   0.500000 )  
               a(3) = (  -0.500000   0.500000   0.000000 )  

     reciprocal axes: (cart. coord. in units 2 pi/alat)
               b(1) = ( -1.000000 -1.000000  1.000000 )  
               b(2) = (  1.000000  1.000000  1.000000 )  
               b(3) = ( -1.000000  1.000000 -1.000000 )  


     PseudoPot. # 1 for Si read from file:
     /home/max/quantum_espresso/qe-6.1/pseudo/si_pbe_v1.uspp.F.UPF.txt
     MD5 check sum: a056efeee980c13900f22a371efd63c1
     Pseudo is Ultrasoft + core correction, Zval =  4.0
     Generated by new atomic code, or converted to UPF format
     Using radial grid of  899 points,  6 beta functions with: 
                l(1) =   0
                l(2) =   0
                l(3) =   1
                l(4) =   1
                l(5) =   2
                l(6) =   2
     Q(r) pseudized with  8 coefficients,  rinner =    0.900   0.900   0.900
                                                       0.900   0.900

     atomic species   valence    mass     pseudopotential
        Si             4.00    28.08600     Si( 1.00)

     48 Sym. Ops., with inversion, found (24 have fractional translation)



   Cartesian axes

     site n.     atom                  positions (alat units)
         1           Si  tau(   1) = (   0.0000000   0.0000000   0.0000000  )
         2           Si  tau(   2) = (   0.2500000   0.2500000   0.2500000  )

     number of k points=    28
                       cart. coord. in units 2pi/alat
        k(    1) = (  -0.0833333   0.0833333   0.0833333), wk =   0.0185185
        k(    2) = (  -0.2500000   0.2500000  -0.0833333), wk =   0.0555556
        k(    3) = (  -0.4166667   0.4166667  -0.2500000), wk =   0.0555556
        k(    4) = (   0.4166667  -0.4166667   0.5833333), wk =   0.0555556
        k(    5) = (   0.2500000  -0.2500000   0.4166667), wk =   0.0555556
        k(    6) = (   0.0833333  -0.0833333   0.2500000), wk =   0.0555556
        k(    7) = (  -0.0833333   0.4166667   0.0833333), wk =   0.0555556
        k(    8) = (  -0.2500000   0.5833333  -0.0833333), wk =   0.1111111
        k(    9) = (   0.5833333  -0.2500000   0.7500000), wk =   0.1111111
        k(   10) = (   0.4166667  -0.0833333   0.5833333), wk =   0.1111111
        k(   11) = (   0.2500000   0.0833333   0.4166667), wk =   0.1111111
        k(   12) = (  -0.0833333   0.7500000   0.0833333), wk =   0.0555556
        k(   13) = (   0.7500000  -0.0833333   0.9166667), wk =   0.1111111
        k(   14) = (   0.5833333   0.0833333   0.7500000), wk =   0.1111111
        k(   15) = (   0.4166667   0.2500000   0.5833333), wk =   0.1111111
        k(   16) = (  -0.0833333  -0.9166667   0.0833333), wk =   0.0555556
        k(   17) = (  -0.2500000  -0.7500000  -0.0833333), wk =   0.1111111
        k(   18) = (  -0.0833333  -0.5833333   0.0833333), wk =   0.0555556
        k(   19) = (  -0.2500000   0.2500000   0.2500000), wk =   0.0185185
        k(   20) = (  -0.4166667   0.4166667   0.0833333), wk =   0.0555556
        k(   21) = (   0.4166667  -0.4166667   0.9166667), wk =   0.0555556
        k(   22) = (   0.2500000  -0.2500000   0.7500000), wk =   0.0555556
        k(   23) = (  -0.2500000   0.5833333   0.2500000), wk =   0.0555556
        k(   24) = (   0.5833333  -0.2500000   1.0833333), wk =   0.1111111
        k(   25) = (   0.4166667  -0.0833333   0.9166667), wk =   0.1111111
        k(   26) = (  -0.2500000  -1.0833333   0.2500000), wk =   0.0555556
        k(   27) = (  -0.4166667   0.4166667   0.4166667), wk =   0.0185185
        k(   28) = (   0.4166667  -0.4166667   1.2500000), wk =   0.0555556

     Dense  grid:    17453 G-vectors     FFT dimensions: (  40,  40,  40)

     Smooth grid:     6183 G-vectors     FFT dimensions: (  25,  25,  25)

     Estimated max dynamical RAM per process >       3.37MB

     Estimated total allocated dynamical RAM >      13.50MB

     Initial potential from superposition of free atoms

     starting charge    7.99866, renormalised to    8.00000
     Starting wfc are    8 randomized atomic wfcs

     total cpu time spent up to now is        0.7 secs

     per-process dynamical memory:     9.8 Mb

     Self-consistent Calculation

     iteration #  1     ecut=    30.00 Ry     beta=0.70
     Davidson diagonalization with overlap
     ethr =  1.00E-02,  avg # of iterations =  2.0

     Threshold (ethr) on eigenvalues was too large:
     Diagonalizing with lowered threshold

     Davidson diagonalization with overlap
     ethr =  6.70E-04,  avg # of iterations =  1.0

     total cpu time spent up to now is        1.1 secs

     total energy              =     -19.19124072 Ry
     Harris-Foulkes estimate   =     -19.20345407 Ry
     estimated scf accuracy    <       0.05314713 Ry

     iteration #  2     ecut=    30.00 Ry     beta=0.70
     Davidson diagonalization with overlap
     ethr =  6.64E-04,  avg # of iterations =  1.0

     total cpu time spent up to now is        1.4 secs

     total energy              =     -19.19296752 Ry
     Harris-Foulkes estimate   =     -19.19313605 Ry
     estimated scf accuracy    <       0.00244786 Ry

     iteration #  3     ecut=    30.00 Ry     beta=0.70
     Davidson diagonalization with overlap
     ethr =  3.06E-05,  avg # of iterations =  2.1

     total cpu time spent up to now is        1.7 secs

     total energy              =     -19.19330153 Ry
     Harris-Foulkes estimate   =     -19.19331417 Ry
     estimated scf accuracy    <       0.00004112 Ry

     iteration #  4     ecut=    30.00 Ry     beta=0.70
     Davidson diagonalization with overlap
     ethr =  5.14E-07,  avg # of iterations =  3.3

     total cpu time spent up to now is        2.4 secs

     total energy              =     -19.19333833 Ry
     Harris-Foulkes estimate   =     -19.19333913 Ry
     estimated scf accuracy    <       0.00000301 Ry

     iteration #  5     ecut=    30.00 Ry     beta=0.70
     Davidson diagonalization with overlap
     ethr =  3.76E-08,  avg # of iterations =  2.0

     total cpu time spent up to now is        2.7 secs

     total energy              =     -19.19333873 Ry
     Harris-Foulkes estimate   =     -19.19333872 Ry
     estimated scf accuracy    <       0.00000001 Ry

     iteration #  6     ecut=    30.00 Ry     beta=0.70
     Davidson diagonalization with overlap
     ethr =  1.27E-10,  avg # of iterations =  3.9

     total cpu time spent up to now is        3.0 secs

     End of self-consistent calculation

          k =-0.0833 0.0833 0.0833 (   752 PWs)   bands (ev):

    -5.7709   5.0587   5.7780   5.7780

          k =-0.2500 0.2500-0.0833 (   775 PWs)   bands (ev):

    -5.3038   2.9974   4.5681   5.5690

          k =-0.4167 0.4167-0.2500 (   771 PWs)   bands (ev):

    -4.2361   0.2868   4.1057   4.9437

          k = 0.4167-0.4167 0.5833 (   771 PWs)   bands (ev):

    -3.5584  -0.8293   4.1670   4.5718

          k = 0.2500-0.2500 0.4167 (   776 PWs)   bands (ev):

    -4.6380   1.1164   4.6334   4.6568

          k = 0.0833-0.0833 0.2500 (   781 PWs)   bands (ev):

    -5.5350   3.9933   5.1474   5.3221

          k =-0.0833 0.4167 0.0833 (   775 PWs)   bands (ev):

    -5.0674   2.7966   4.4115   4.4322

          k =-0.2500 0.5833-0.0833 (   775 PWs)   bands (ev):

    -4.1762   0.9847   3.1243   4.0515

          k = 0.5833-0.2500 0.7500 (   769 PWs)   bands (ev):

    -3.0898  -0.7207   2.5280   3.8310

          k = 0.4167-0.0833 0.5833 (   771 PWs)   bands (ev):

    -3.7915   0.3085   2.4949   4.3048

          k = 0.2500 0.0833 0.4167 (   778 PWs)   bands (ev):

    -4.8468   1.9817   3.8064   4.9554

          k =-0.0833 0.7500 0.0833 (   774 PWs)   bands (ev):

    -3.4782   0.1602   3.0925   3.4221

          k = 0.7500-0.0833 0.9167 (   764 PWs)   bands (ev):

    -2.3093  -1.1560   2.2738   3.0277

          k = 0.5833 0.0833 0.7500 (   767 PWs)   bands (ev):

    -2.6779  -0.8168   1.7992   3.5610

          k = 0.4167 0.2500 0.5833 (   773 PWs)   bands (ev):

    -3.6843  -0.3464   3.4058   4.3994

          k =-0.0833-0.9167 0.0833 (   765 PWs)   bands (ev):

    -2.3966  -1.1627   2.8288   3.2106

          k =-0.2500-0.7500-0.0833 (   770 PWs)   bands (ev):

    -3.3146  -0.0570   2.5843   3.3613

          k =-0.0833-0.5833 0.0833 (   775 PWs)   bands (ev):

    -4.3767   1.5057   3.6241   3.8369

          k =-0.2500 0.2500 0.2500 (   778 PWs)   bands (ev):

    -5.0792   2.0397   5.1752   5.1752

          k =-0.4167 0.4167 0.0833 (   779 PWs)   bands (ev):

    -4.4145   1.1080   3.0884   5.0074

          k = 0.4167-0.4167 0.9167 (   769 PWs)   bands (ev):

    -3.2635  -0.3149   2.0082   4.2389

          k = 0.2500-0.2500 0.7500 (   768 PWs)   bands (ev):

    -3.2113  -0.3933   2.4730   3.7678

          k =-0.2500 0.5833 0.2500 (   777 PWs)   bands (ev):

    -4.0001   0.3185   3.5332   4.1336

          k = 0.5833-0.2500 1.0833 (   764 PWs)   bands (ev):

    -3.0208  -0.4344   2.1075   3.3614

          k = 0.4167-0.0833 0.9167 (   759 PWs)   bands (ev):

    -2.2085  -1.1637   1.9531   2.7108

          k =-0.2500-1.0833 0.2500 (   764 PWs)   bands (ev):

    -2.4154  -1.0654   1.8294   3.5770

          k =-0.4167 0.4167 0.4167 (   769 PWs)   bands (ev):

    -3.9165  -0.4378   4.7917   4.7917

          k = 0.4167-0.4167 1.2500 (   771 PWs)   bands (ev):

    -3.3270  -0.7407   2.9900   4.3625

     highest occupied level (ev):     5.7780

!    total energy              =     -19.19333876 Ry
     Harris-Foulkes estimate   =     -19.19333876 Ry
     estimated scf accuracy    <          6.5E-10 Ry

     The total energy is the sum of the following terms:

     one-electron contribution =       4.90561549 Ry
     hartree contribution      =       1.13916137 Ry
     xc contribution           =      -8.58971525 Ry
     ewald contribution        =     -16.64840037 Ry

     convergence has been achieved in   6 iterations

     Writing output data file silicon.10.354.save

     init_run     :      0.44s CPU      0.50s WALL (       1 calls)
     electrons    :      1.50s CPU      2.31s WALL (       1 calls)

     Called by init_run:
     wfcinit      :      0.08s CPU      0.09s WALL (       1 calls)
     potinit      :      0.03s CPU      0.04s WALL (       1 calls)

     Called by electrons:
     c_bands      :      0.88s CPU      1.43s WALL (       7 calls)
     sum_band     :      0.34s CPU      0.53s WALL (       7 calls)
     v_of_rho     :      0.14s CPU      0.19s WALL (       7 calls)
     newd         :      0.15s CPU      0.18s WALL (       7 calls)
     mix_rho      :      0.01s CPU      0.02s WALL (       7 calls)

     Called by c_bands:
     init_us_2    :      0.06s CPU      0.07s WALL (     420 calls)
     cegterg      :      0.75s CPU      1.26s WALL (     196 calls)

     Called by sum_band:
     sum_band:bec :      0.00s CPU      0.00s WALL (     196 calls)
     addusdens    :      0.16s CPU      0.24s WALL (       7 calls)

     Called by *egterg:
     h_psi        :      0.63s CPU      1.00s WALL (     656 calls)
     s_psi        :      0.05s CPU      0.07s WALL (     656 calls)
     g_psi        :      0.00s CPU      0.01s WALL (     432 calls)
     cdiaghg      :      0.04s CPU      0.07s WALL (     600 calls)

     Called by h_psi:
     h_psi:pot    :      0.62s CPU      0.99s WALL (     656 calls)
     h_psi:calbec :      0.07s CPU      0.12s WALL (     656 calls)
     vloc_psi     :      0.50s CPU      0.81s WALL (     656 calls)
     add_vuspsi   :      0.05s CPU      0.07s WALL (     656 calls)

     General routines
     calbec       :      0.09s CPU      0.15s WALL (     852 calls)
     fft          :      0.09s CPU      0.17s WALL (     112 calls)
     ffts         :      0.00s CPU      0.00s WALL (      14 calls)
     fftw         :      0.49s CPU      0.82s WALL (    5708 calls)
     interpolate  :      0.01s CPU      0.03s WALL (      14 calls)
     davcio       :      0.00s CPU      0.00s WALL (      28 calls)

     Parallel routines
     fft_scatter  :      0.22s CPU      0.53s WALL (    5834 calls)

     PWSCF        :     2.15s CPU         3.15s WALL


   This run was terminated on:  10:32: 1  10Nov2017            

=------------------------------------------------------------------------------=
   JOB DONE.
=------------------------------------------------------------------------------=
