
     Program PHONON v.6.1 (svn rev. 13369) starts on  9Nov2017 at 12:56:42 

     This program is part of the open-source Quantum ESPRESSO suite
     for quantum simulation of materials; please cite
         "P. Giannozzi et al., J. Phys.:Condens. Matter 21 395502 (2009);
          URL http://www.quantum-espresso.org", 
     in publications or presentations arising from this work. More details at
     http://www.quantum-espresso.org/quote

     Parallel version (MPI), running on     4 processors
     R & G space division:  proc/nbgrp/npool/nimage =       4

     Reading data from directory:
     ./silicon.10.351.save

   Info: using nr1, nr2, nr3 values from input

   Info: using nr1, nr2, nr3 values from input

     IMPORTANT: XC functional enforced from input :
     Exchange-correlation      = SLA  PW   PBE  PBE ( 1  4  3  4 0 0)
     Any further DFT definition will be discarded
     Please, verify this is what you really want


     Parallelization info
     --------------------
     sticks:   dense  smooth     PW     G-vecs:    dense   smooth      PW
     Min          64      64     22                  709      709     140
     Max          67      67     23                  710      710     141
     Sum         265     265     91                 2837     2837     561


     Check: negative/imaginary core charge=   -0.000006    0.000000


     Dynamical matrices for ( 4, 4, 4)  uniform grid of q-points
     (   8q-points):
       N         xq(1)         xq(2)         xq(3) 
       1   0.000000000   0.000000000   0.000000000
       2  -0.250000000   0.250000000  -0.250000000
       3   0.500000000  -0.500000000   0.500000000
       4   0.000000000   0.500000000   0.000000000
       5   0.750000000  -0.250000000   0.750000000
       6   0.500000000   0.000000000   0.500000000
       7   0.000000000  -1.000000000   0.000000000
       8  -0.500000000  -1.000000000   0.000000000

     Calculation of q =    0.0000000   0.0000000   0.0000000

                                                                                

     bravais-lattice index     =            2
     lattice parameter (alat)  =      10.3510  a.u.
     unit-cell volume          =     277.2598 (a.u.)^3
     number of atoms/cell      =            2
     number of atomic types    =            1
     kinetic-energy cut-off    =      18.0000  Ry
     charge density cut-off    =      72.0000  Ry
     convergence threshold     =      1.0E-12
     beta                      =       0.7000
     number of iterations used =            4
     Exchange-correlation      = SLA  PW   PBE  PBE ( 1  4  3  4 0 0)


     celldm(1)=   10.35100  celldm(2)=    0.00000  celldm(3)=    0.00000
     celldm(4)=    0.00000  celldm(5)=    0.00000  celldm(6)=    0.00000

     crystal axes: (cart. coord. in units of alat)
               a(1) = ( -0.5000  0.0000  0.5000 )  
               a(2) = (  0.0000  0.5000  0.5000 )  
               a(3) = ( -0.5000  0.5000  0.0000 )  

     reciprocal axes: (cart. coord. in units 2 pi/alat)
               b(1) = ( -1.0000 -1.0000  1.0000 )  
               b(2) = (  1.0000  1.0000  1.0000 )  
               b(3) = ( -1.0000  1.0000 -1.0000 )  


     Atoms inside the unit cell: 

     Cartesian axes

     site n.  atom      mass           positions (alat units)
        1     Si  28.0860   tau(    1) = (    0.00000    0.00000    0.00000  )
        2     Si  28.0860   tau(    2) = (    0.25000    0.25000    0.25000  )

     Computing dynamical matrix for 
                    q = (   0.0000000   0.0000000   0.0000000 )

     49 Sym.Ops. (with q -> -q+G )


     G cutoff =  195.4058  (    710 G-vectors)     FFT grid: ( 20, 20, 20)
     number of k points=    10

     PseudoPot. # 1 for Si read from file:
     /home/max/quantum_espresso/qe-6.1/pseudo/si_pbe_v1.uspp.F.UPF.txt
     MD5 check sum: a056efeee980c13900f22a371efd63c1
     Pseudo is Ultrasoft + core correction, Zval =  4.0
     Generated by new atomic code, or converted to UPF format
     Using radial grid of  899 points,  6 beta functions with: 
                l(1) =   0
                l(2) =   0
                l(3) =   1
                l(4) =   1
                l(5) =   2
                l(6) =   2
     Q(r) pseudized with  8 coefficients,  rinner =    0.900   0.900   0.900
                                                       0.900   0.900

     Mode symmetry, O_h (m-3m)  point group:


     Electric field:
     Dielectric constant
     Born effective charges in two ways 


     Atomic displacements:
     There are   2 irreducible representations

     Representation     1      3 modes -T_2g G_25' G_5+  To be done

     Representation     2      3 modes -T_1u G_15  G_4-  To be done



     Alpha used in Ewald sum =   0.7000
     PHONON       :     0.41s CPU         0.43s WALL


     Electric Fields Calculation

      iter #   1 total cpu time :     0.9 secs   av.it.:   5.6
      thresh= 1.000E-02 alpha_mix =  0.700 |ddv_scf|^2 =  9.380E-07

      iter #   2 total cpu time :     1.4 secs   av.it.:   9.9
      thresh= 9.685E-05 alpha_mix =  0.700 |ddv_scf|^2 =  5.993E-08

      iter #   3 total cpu time :     1.6 secs   av.it.:   9.8
      thresh= 2.448E-05 alpha_mix =  0.700 |ddv_scf|^2 =  4.720E-09

      iter #   4 total cpu time :     1.8 secs   av.it.:   9.0
      thresh= 6.870E-06 alpha_mix =  0.700 |ddv_scf|^2 =  2.836E-11

      iter #   5 total cpu time :     2.0 secs   av.it.:   9.1
      thresh= 5.325E-07 alpha_mix =  0.700 |ddv_scf|^2 =  1.469E-14

     End of electric fields calculation

          Dielectric constant in cartesian axis 

          (      13.907768301       0.000000000       0.000000000 )
          (       0.000000000      13.907768301      -0.000000000 )
          (       0.000000000      -0.000000000      13.907768301 )

          Effective charges (d Force / dE) in cartesian axis

           atom      1   Si 
      Ex  (       -0.03542       -0.00000       -0.00000 )
      Ey  (       -0.00000       -0.03542       -0.00000 )
      Ez  (       -0.00000       -0.00000       -0.03542 )
           atom      2   Si 
      Ex  (       -0.03542        0.00000       -0.00000 )
      Ey  (        0.00000       -0.03542        0.00000 )
      Ez  (       -0.00000        0.00000       -0.03542 )


     Representation #  1 modes #   1  2  3

     Self-consistent Calculation

      iter #   1 total cpu time :     2.5 secs   av.it.:   5.0
      thresh= 1.000E-02 alpha_mix =  0.700 |ddv_scf|^2 =  2.240E-07

      iter #   2 total cpu time :     2.7 secs   av.it.:   9.8
      thresh= 4.733E-05 alpha_mix =  0.700 |ddv_scf|^2 =  1.389E-08

      iter #   3 total cpu time :     2.9 secs   av.it.:   9.2
      thresh= 1.179E-05 alpha_mix =  0.700 |ddv_scf|^2 =  8.615E-10

      iter #   4 total cpu time :     3.5 secs   av.it.:   8.9
      thresh= 2.935E-06 alpha_mix =  0.700 |ddv_scf|^2 =  1.908E-12

      iter #   5 total cpu time :     3.7 secs   av.it.:   9.5
      thresh= 1.381E-07 alpha_mix =  0.700 |ddv_scf|^2 =  1.347E-14

     End of self-consistent calculation

     Convergence has been achieved 


     Representation #  2 modes #   4  5  6

     Self-consistent Calculation

      iter #   1 total cpu time :     3.9 secs   av.it.:   5.0
      thresh= 1.000E-02 alpha_mix =  0.700 |ddv_scf|^2 =  1.857E-07

      iter #   2 total cpu time :     4.1 secs   av.it.:   9.6
      thresh= 4.310E-05 alpha_mix =  0.700 |ddv_scf|^2 =  1.509E-08

      iter #   3 total cpu time :     4.4 secs   av.it.:   9.3
      thresh= 1.228E-05 alpha_mix =  0.700 |ddv_scf|^2 =  9.165E-10

      iter #   4 total cpu time :     4.6 secs   av.it.:   9.5
      thresh= 3.027E-06 alpha_mix =  0.700 |ddv_scf|^2 =  5.349E-12

      iter #   5 total cpu time :     4.8 secs   av.it.:   9.0
      thresh= 2.313E-07 alpha_mix =  0.700 |ddv_scf|^2 =  4.703E-15

     End of self-consistent calculation

     Convergence has been achieved 

     Number of q in the star =    1
     List of q in the star:
          1   0.000000000   0.000000000   0.000000000

          Dielectric constant in cartesian axis 

          (      13.907768301       0.000000000       0.000000000 )
          (       0.000000000      13.907768301      -0.000000000 )
          (       0.000000000      -0.000000000      13.907768301 )

          Effective charges (d Force / dE) in cartesian axis

           atom      1   Si 
      Ex  (       -0.03542       -0.00000       -0.00000 )
      Ey  (       -0.00000       -0.03542       -0.00000 )
      Ez  (       -0.00000       -0.00000       -0.03542 )
           atom      2   Si 
      Ex  (       -0.03542        0.00000       -0.00000 )
      Ey  (        0.00000       -0.03542        0.00000 )
      Ez  (       -0.00000        0.00000       -0.03542 )

          Effective charges (d P / du) in cartesian axis 

           atom      1   Si 
      Px  (       -0.07532       -0.00000       -0.00000 )
      Py  (       -0.00000       -0.07532        0.00000 )
      Pz  (       -0.00000        0.00000       -0.07532 )
           atom      2   Si 
      Px  (       -0.07532        0.00000       -0.00000 )
      Py  (        0.00000       -0.07532       -0.00000 )
      Pz  (       -0.00000        0.00000       -0.07532 )

     Diagonalizing the dynamical matrix

     q = (    0.000000000   0.000000000   0.000000000 ) 

 **************************************************************************
     freq (    1) =       1.888507 [THz] =      62.993808 [cm-1]
     freq (    2) =       1.888507 [THz] =      62.993808 [cm-1]
     freq (    3) =       1.888507 [THz] =      62.993808 [cm-1]
     freq (    4) =      15.314069 [THz] =     510.822367 [cm-1]
     freq (    5) =      15.314069 [THz] =     510.822367 [cm-1]
     freq (    6) =      15.314069 [THz] =     510.822367 [cm-1]
 **************************************************************************

     Mode symmetry, O_h (m-3m)  point group:

     freq (  1 -  3) =         63.0  [cm-1]   --> T_1u G_15  G_4- I  
     freq (  4 -  6) =        510.8  [cm-1]   --> T_2g G_25' G_5+ R  

     Calculation of q =   -0.2500000   0.2500000  -0.2500000

   Info: using nr1, nr2, nr3 values from input

   Info: using nr1, nr2, nr3 values from input

     Parallelization info
     --------------------
     sticks:   dense  smooth     PW     G-vecs:    dense   smooth      PW
     Min          64      64     24                  709      709     161
     Max          67      67     25                  710      710     162
     Sum         265     265     97                 2837     2837     645



     bravais-lattice index     =            2
     lattice parameter (alat)  =      10.3510  a.u.
     unit-cell volume          =     277.2598 (a.u.)^3
     number of atoms/cell      =            2
     number of atomic types    =            1
     number of electrons       =         8.00
     number of Kohn-Sham states=            4
     kinetic-energy cutoff     =      18.0000  Ry
     charge density cutoff     =      72.0000  Ry
     Exchange-correlation      = SLA  PW   PBE  PBE ( 1  4  3  4 0 0)

     celldm(1)=  10.351000  celldm(2)=   0.000000  celldm(3)=   0.000000
     celldm(4)=   0.000000  celldm(5)=   0.000000  celldm(6)=   0.000000

     crystal axes: (cart. coord. in units of alat)
               a(1) = (  -0.500000   0.000000   0.500000 )  
               a(2) = (   0.000000   0.500000   0.500000 )  
               a(3) = (  -0.500000   0.500000   0.000000 )  

     reciprocal axes: (cart. coord. in units 2 pi/alat)
               b(1) = ( -1.000000 -1.000000  1.000000 )  
               b(2) = (  1.000000  1.000000  1.000000 )  
               b(3) = ( -1.000000  1.000000 -1.000000 )  


     PseudoPot. # 1 for Si read from file:
     /home/max/quantum_espresso/qe-6.1/pseudo/si_pbe_v1.uspp.F.UPF.txt
     MD5 check sum: a056efeee980c13900f22a371efd63c1
     Pseudo is Ultrasoft + core correction, Zval =  4.0
     Generated by new atomic code, or converted to UPF format
     Using radial grid of  899 points,  6 beta functions with: 
                l(1) =   0
                l(2) =   0
                l(3) =   1
                l(4) =   1
                l(5) =   2
                l(6) =   2
     Q(r) pseudized with  8 coefficients,  rinner =    0.900   0.900   0.900
                                                       0.900   0.900

     atomic species   valence    mass     pseudopotential
        Si             4.00    28.08600     Si( 1.00)

     48 Sym. Ops., with inversion, found



   Cartesian axes

     site n.     atom                  positions (alat units)
         1           Si  tau(   1) = (   0.0000000   0.0000000   0.0000000  )
         2           Si  tau(   2) = (   0.2500000   0.2500000   0.2500000  )

     number of k points=   120

     Number of k-points >= 100: set verbosity='high' to print them.

     Dense  grid:     2837 G-vectors     FFT dimensions: (  20,  20,  20)

     Estimated max dynamical RAM per process >       0.33MB

     Estimated total allocated dynamical RAM >       1.32MB

     Check: negative/imaginary core charge=   -0.000006    0.000000

     The potential is recalculated from file :
     ./_ph0/silicon.10.351.save/charge-density.dat

     Starting wfc are    8 atomic wfcs

     Band Structure Calculation
     Davidson diagonalization with overlap

     ethr =  1.25E-10,  avg # of iterations = 11.7

     total cpu time spent up to now is        1.3 secs

     End of band structure calculation

     Number of k-points >= 100: set verbosity='high' to print the bands.

     highest occupied level (ev):     5.6497

     Writing output data file silicon.10.351.save

                                                                                

     bravais-lattice index     =            2
     lattice parameter (alat)  =      10.3510  a.u.
     unit-cell volume          =     277.2598 (a.u.)^3
     number of atoms/cell      =            2
     number of atomic types    =            1
     kinetic-energy cut-off    =      18.0000  Ry
     charge density cut-off    =      72.0000  Ry
     convergence threshold     =      1.0E-12
     beta                      =       0.7000
     number of iterations used =            4
     Exchange-correlation      = SLA  PW   PBE  PBE ( 1  4  3  4 0 0)


     celldm(1)=   10.35100  celldm(2)=    0.00000  celldm(3)=    0.00000
     celldm(4)=    0.00000  celldm(5)=    0.00000  celldm(6)=    0.00000

     crystal axes: (cart. coord. in units of alat)
               a(1) = ( -0.5000  0.0000  0.5000 )  
               a(2) = (  0.0000  0.5000  0.5000 )  
               a(3) = ( -0.5000  0.5000  0.0000 )  

     reciprocal axes: (cart. coord. in units 2 pi/alat)
               b(1) = ( -1.0000 -1.0000  1.0000 )  
               b(2) = (  1.0000  1.0000  1.0000 )  
               b(3) = ( -1.0000  1.0000 -1.0000 )  


     Atoms inside the unit cell: 

     Cartesian axes

     site n.  atom      mass           positions (alat units)
        1     Si  28.0860   tau(    1) = (    0.00000    0.00000    0.00000  )
        2     Si  28.0860   tau(    2) = (    0.25000    0.25000    0.25000  )

     Computing dynamical matrix for 
                    q = (  -0.2500000   0.2500000  -0.2500000 )

      6 Sym.Ops. (no q -> -q+G )


     G cutoff =  195.4058  (    710 G-vectors)     FFT grid: ( 20, 20, 20)
     number of k points=   120

     PseudoPot. # 1 for Si read from file:
     /home/max/quantum_espresso/qe-6.1/pseudo/si_pbe_v1.uspp.F.UPF.txt
     MD5 check sum: a056efeee980c13900f22a371efd63c1
     Pseudo is Ultrasoft + core correction, Zval =  4.0
     Generated by new atomic code, or converted to UPF format
     Using radial grid of  899 points,  6 beta functions with: 
                l(1) =   0
                l(2) =   0
                l(3) =   1
                l(4) =   1
                l(5) =   2
                l(6) =   2
     Q(r) pseudized with  8 coefficients,  rinner =    0.900   0.900   0.900
                                                       0.900   0.900

     Mode symmetry, C_3v (3m)   point group:


     Atomic displacements:
     There are   4 irreducible representations

     Representation     1      1 modes -A_1  L_1  To be done

     Representation     2      1 modes -A_1  L_1  To be done

     Representation     3      2 modes -E    L_3  To be done

     Representation     4      2 modes -E    L_3  To be done



     Alpha used in Ewald sum =   0.7000
     PHONON       :     6.08s CPU         6.59s WALL



     Representation #  1 mode #   1

     Self-consistent Calculation

      iter #   1 total cpu time :     6.9 secs   av.it.:   5.5
      thresh= 1.000E-02 alpha_mix =  0.700 |ddv_scf|^2 =  2.460E-03

      iter #   2 total cpu time :     7.6 secs   av.it.:   7.5
      thresh= 4.960E-03 alpha_mix =  0.700 |ddv_scf|^2 =  3.719E-02

      iter #   3 total cpu time :     7.8 secs   av.it.:   6.3
      thresh= 1.000E-02 alpha_mix =  0.700 |ddv_scf|^2 =  1.712E-06

      iter #   4 total cpu time :     8.1 secs   av.it.:   8.2
      thresh= 1.309E-04 alpha_mix =  0.700 |ddv_scf|^2 =  1.159E-07

      iter #   5 total cpu time :     8.4 secs   av.it.:   8.1
      thresh= 3.404E-05 alpha_mix =  0.700 |ddv_scf|^2 =  4.734E-09

      iter #   6 total cpu time :     8.7 secs   av.it.:   8.0
      thresh= 6.881E-06 alpha_mix =  0.700 |ddv_scf|^2 =  4.009E-09

      iter #   7 total cpu time :     9.3 secs   av.it.:   6.2
      thresh= 6.332E-06 alpha_mix =  0.700 |ddv_scf|^2 =  5.224E-10

      iter #   8 total cpu time :     9.6 secs   av.it.:   7.2
      thresh= 2.286E-06 alpha_mix =  0.700 |ddv_scf|^2 =  4.044E-12

      iter #   9 total cpu time :     9.9 secs   av.it.:   7.2
      thresh= 2.011E-07 alpha_mix =  0.700 |ddv_scf|^2 =  1.697E-13

     End of self-consistent calculation

     Convergence has been achieved 


     Representation #  2 mode #   2

     Self-consistent Calculation

      iter #   1 total cpu time :    10.1 secs   av.it.:   5.5
      thresh= 1.000E-02 alpha_mix =  0.700 |ddv_scf|^2 =  2.460E-03

      iter #   2 total cpu time :    10.4 secs   av.it.:   7.5
      thresh= 4.960E-03 alpha_mix =  0.700 |ddv_scf|^2 =  3.719E-02

      iter #   3 total cpu time :    10.7 secs   av.it.:   6.3
      thresh= 1.000E-02 alpha_mix =  0.700 |ddv_scf|^2 =  1.712E-06

      iter #   4 total cpu time :    11.1 secs   av.it.:   8.2
      thresh= 1.309E-04 alpha_mix =  0.700 |ddv_scf|^2 =  1.159E-07

      iter #   5 total cpu time :    11.7 secs   av.it.:   8.1
      thresh= 3.404E-05 alpha_mix =  0.700 |ddv_scf|^2 =  4.734E-09

      iter #   6 total cpu time :    12.0 secs   av.it.:   8.0
      thresh= 6.881E-06 alpha_mix =  0.700 |ddv_scf|^2 =  4.009E-09

      iter #   7 total cpu time :    12.2 secs   av.it.:   6.2
      thresh= 6.332E-06 alpha_mix =  0.700 |ddv_scf|^2 =  5.224E-10

      iter #   8 total cpu time :    12.5 secs   av.it.:   7.2
      thresh= 2.286E-06 alpha_mix =  0.700 |ddv_scf|^2 =  4.044E-12

      iter #   9 total cpu time :    12.8 secs   av.it.:   7.2
      thresh= 2.011E-07 alpha_mix =  0.700 |ddv_scf|^2 =  1.697E-13

     End of self-consistent calculation

     Convergence has been achieved 


     Representation #  3 modes #   3  4

     Self-consistent Calculation

      iter #   1 total cpu time :    13.7 secs   av.it.:   5.0
      thresh= 1.000E-02 alpha_mix =  0.700 |ddv_scf|^2 =  5.724E-07

      iter #   2 total cpu time :    14.4 secs   av.it.:   9.4
      thresh= 7.566E-05 alpha_mix =  0.700 |ddv_scf|^2 =  4.310E-08

      iter #   3 total cpu time :    15.4 secs   av.it.:   9.2
      thresh= 2.076E-05 alpha_mix =  0.700 |ddv_scf|^2 =  3.733E-09

      iter #   4 total cpu time :    16.1 secs   av.it.:   8.9
      thresh= 6.110E-06 alpha_mix =  0.700 |ddv_scf|^2 =  1.121E-11

      iter #   5 total cpu time :    16.7 secs   av.it.:   9.2
      thresh= 3.348E-07 alpha_mix =  0.700 |ddv_scf|^2 =  4.994E-13

     End of self-consistent calculation

     Convergence has been achieved 


     Representation #  4 modes #   5  6

     Self-consistent Calculation

      iter #   1 total cpu time :    17.6 secs   av.it.:   5.0
      thresh= 1.000E-02 alpha_mix =  0.700 |ddv_scf|^2 =  5.723E-07

      iter #   2 total cpu time :    18.3 secs   av.it.:   9.6
      thresh= 7.565E-05 alpha_mix =  0.700 |ddv_scf|^2 =  4.305E-08

      iter #   3 total cpu time :    19.2 secs   av.it.:   9.4
      thresh= 2.075E-05 alpha_mix =  0.700 |ddv_scf|^2 =  3.729E-09

      iter #   4 total cpu time :    20.0 secs   av.it.:   9.1
      thresh= 6.107E-06 alpha_mix =  0.700 |ddv_scf|^2 =  1.121E-11

      iter #   5 total cpu time :    20.6 secs   av.it.:   9.2
      thresh= 3.348E-07 alpha_mix =  0.700 |ddv_scf|^2 =  4.997E-13

     End of self-consistent calculation

     Convergence has been achieved 

     Number of q in the star =    8
     List of q in the star:
          1  -0.250000000   0.250000000  -0.250000000
          2   0.250000000  -0.250000000  -0.250000000
          3   0.250000000  -0.250000000   0.250000000
          4   0.250000000   0.250000000   0.250000000
          5  -0.250000000  -0.250000000  -0.250000000
          6  -0.250000000  -0.250000000   0.250000000
          7  -0.250000000   0.250000000   0.250000000
          8   0.250000000   0.250000000  -0.250000000

     Diagonalizing the dynamical matrix

     q = (   -0.250000000   0.250000000  -0.250000000 ) 

 **************************************************************************
     freq (    1) =       3.398897 [THz] =     113.375010 [cm-1]
     freq (    2) =       3.398897 [THz] =     113.375010 [cm-1]
     freq (    3) =       6.905813 [THz] =     230.353113 [cm-1]
     freq (    4) =      14.394201 [THz] =     480.138856 [cm-1]
     freq (    5) =      14.699001 [THz] =     490.305891 [cm-1]
     freq (    6) =      14.699001 [THz] =     490.305891 [cm-1]
 **************************************************************************

     Mode symmetry, C_3v (3m)   point group:

     freq (  1 -  2) =        113.4  [cm-1]   --> E    L_3           
     freq (  3 -  3) =        230.4  [cm-1]   --> A_1  L_1           
     freq (  4 -  4) =        480.1  [cm-1]   --> A_1  L_1           
     freq (  5 -  6) =        490.3  [cm-1]   --> E    L_3           

     Calculation of q =    0.5000000  -0.5000000   0.5000000

   Info: using nr1, nr2, nr3 values from input

   Info: using nr1, nr2, nr3 values from input

     Parallelization info
     --------------------
     sticks:   dense  smooth     PW     G-vecs:    dense   smooth      PW
     Min          64      64     27                  709      709     186
     Max          67      67     28                  710      710     189
     Sum         265     265    109                 2837     2837     749



     bravais-lattice index     =            2
     lattice parameter (alat)  =      10.3510  a.u.
     unit-cell volume          =     277.2598 (a.u.)^3
     number of atoms/cell      =            2
     number of atomic types    =            1
     number of electrons       =         8.00
     number of Kohn-Sham states=            4
     kinetic-energy cutoff     =      18.0000  Ry
     charge density cutoff     =      72.0000  Ry
     Exchange-correlation      = SLA  PW   PBE  PBE ( 1  4  3  4 0 0)

     celldm(1)=  10.351000  celldm(2)=   0.000000  celldm(3)=   0.000000
     celldm(4)=   0.000000  celldm(5)=   0.000000  celldm(6)=   0.000000

     crystal axes: (cart. coord. in units of alat)
               a(1) = (  -0.500000   0.000000   0.500000 )  
               a(2) = (   0.000000   0.500000   0.500000 )  
               a(3) = (  -0.500000   0.500000   0.000000 )  

     reciprocal axes: (cart. coord. in units 2 pi/alat)
               b(1) = ( -1.000000 -1.000000  1.000000 )  
               b(2) = (  1.000000  1.000000  1.000000 )  
               b(3) = ( -1.000000  1.000000 -1.000000 )  


     PseudoPot. # 1 for Si read from file:
     /home/max/quantum_espresso/qe-6.1/pseudo/si_pbe_v1.uspp.F.UPF.txt
     MD5 check sum: a056efeee980c13900f22a371efd63c1
     Pseudo is Ultrasoft + core correction, Zval =  4.0
     Generated by new atomic code, or converted to UPF format
     Using radial grid of  899 points,  6 beta functions with: 
                l(1) =   0
                l(2) =   0
                l(3) =   1
                l(4) =   1
                l(5) =   2
                l(6) =   2
     Q(r) pseudized with  8 coefficients,  rinner =    0.900   0.900   0.900
                                                       0.900   0.900

     atomic species   valence    mass     pseudopotential
        Si             4.00    28.08600     Si( 1.00)

     48 Sym. Ops., with inversion, found



   Cartesian axes

     site n.     atom                  positions (alat units)
         1           Si  tau(   1) = (   0.0000000   0.0000000   0.0000000  )
         2           Si  tau(   2) = (   0.2500000   0.2500000   0.2500000  )

     number of k points=    60
                       cart. coord. in units 2pi/alat
        k(    1) = (  -0.1250000   0.1250000   0.1250000), wk =   0.0468750
        k(    2) = (   0.3750000  -0.3750000   0.6250000), wk =   0.0000000
        k(    3) = (  -0.3750000   0.3750000  -0.1250000), wk =   0.0468750
        k(    4) = (   0.1250000  -0.1250000   0.3750000), wk =   0.0000000
        k(    5) = (   0.3750000  -0.3750000   0.6250000), wk =   0.0468750
        k(    6) = (   0.8750000  -0.8750000   1.1250000), wk =   0.0000000
        k(    7) = (   0.1250000  -0.1250000   0.3750000), wk =   0.0468750
        k(    8) = (   0.6250000  -0.6250000   0.8750000), wk =   0.0000000
        k(    9) = (  -0.1250000   0.6250000   0.1250000), wk =   0.0937500
        k(   10) = (   0.3750000   0.1250000   0.6250000), wk =   0.0000000
        k(   11) = (   0.6250000  -0.1250000   0.8750000), wk =   0.0937500
        k(   12) = (   1.1250000  -0.6250000   1.3750000), wk =   0.0000000
        k(   13) = (   0.3750000   0.1250000   0.6250000), wk =   0.0937500
        k(   14) = (   0.8750000  -0.3750000   1.1250000), wk =   0.0000000
        k(   15) = (  -0.1250000  -0.8750000   0.1250000), wk =   0.0937500
        k(   16) = (   0.3750000  -1.3750000   0.6250000), wk =   0.0000000
        k(   17) = (  -0.3750000   0.3750000   0.3750000), wk =   0.0468750
        k(   18) = (   0.1250000  -0.1250000   0.8750000), wk =   0.0000000
        k(   19) = (   0.3750000  -0.3750000   1.1250000), wk =   0.0468750
        k(   20) = (   0.8750000  -0.8750000   1.6250000), wk =   0.0000000
        k(   21) = (   0.1250000  -0.1250000   0.1250000), wk =   0.0156250
        k(   22) = (   0.6250000  -0.6250000   0.6250000), wk =   0.0000000
        k(   23) = (  -0.3750000  -0.3750000  -0.1250000), wk =   0.0937500
        k(   24) = (   0.1250000  -0.8750000   0.3750000), wk =   0.0000000
        k(   25) = (  -0.1250000  -0.3750000   0.3750000), wk =   0.0468750
        k(   26) = (   0.3750000  -0.8750000   0.8750000), wk =   0.0000000
        k(   27) = (   0.3750000   0.3750000   0.6250000), wk =   0.0937500
        k(   28) = (   0.8750000  -0.1250000   1.1250000), wk =   0.0000000
        k(   29) = (   0.6250000   0.3750000  -0.3750000), wk =   0.0468750
        k(   30) = (   1.1250000  -0.1250000   0.1250000), wk =   0.0000000
        k(   31) = (   0.1250000   0.1250000   0.3750000), wk =   0.0937500
        k(   32) = (   0.6250000  -0.3750000   0.8750000), wk =   0.0000000
        k(   33) = (   0.3750000   0.1250000  -0.1250000), wk =   0.0468750
        k(   34) = (   0.8750000  -0.3750000   0.3750000), wk =   0.0000000
        k(   35) = (  -0.1250000  -0.6250000  -0.1250000), wk =   0.0468750
        k(   36) = (   0.3750000  -1.1250000   0.3750000), wk =   0.0000000
        k(   37) = (   0.1250000  -0.6250000   0.1250000), wk =   0.0468750
        k(   38) = (   0.6250000  -1.1250000   0.6250000), wk =   0.0000000
        k(   39) = (   0.6250000   0.1250000   0.8750000), wk =   0.0937500
        k(   40) = (   1.1250000  -0.3750000   1.3750000), wk =   0.0000000
        k(   41) = (  -0.8750000   0.1250000   0.6250000), wk =   0.0937500
        k(   42) = (  -0.3750000  -0.3750000   1.1250000), wk =   0.0000000
        k(   43) = (   0.8750000   0.1250000  -0.6250000), wk =   0.0937500
        k(   44) = (   1.3750000  -0.3750000  -0.1250000), wk =   0.0000000
        k(   45) = (   0.3750000  -0.1250000   0.6250000), wk =   0.0937500
        k(   46) = (   0.8750000  -0.6250000   1.1250000), wk =   0.0000000
        k(   47) = (  -0.6250000  -0.1250000   0.3750000), wk =   0.0937500
        k(   48) = (  -0.1250000  -0.6250000   0.8750000), wk =   0.0000000
        k(   49) = (   0.6250000  -0.1250000  -0.3750000), wk =   0.0937500
        k(   50) = (   1.1250000  -0.6250000   0.1250000), wk =   0.0000000
        k(   51) = (  -0.1250000   0.8750000  -0.1250000), wk =   0.0468750
        k(   52) = (   0.3750000   0.3750000   0.3750000), wk =   0.0000000
        k(   53) = (   0.1250000   0.8750000   0.1250000), wk =   0.0468750
        k(   54) = (   0.6250000   0.3750000   0.6250000), wk =   0.0000000
        k(   55) = (   0.3750000  -0.3750000   0.3750000), wk =   0.0156250
        k(   56) = (   0.8750000  -0.8750000   0.8750000), wk =   0.0000000
        k(   57) = (   0.3750000   0.3750000   1.1250000), wk =   0.0937500
        k(   58) = (   0.8750000  -0.1250000   1.6250000), wk =   0.0000000
        k(   59) = (   1.1250000   0.3750000  -0.3750000), wk =   0.0468750
        k(   60) = (   1.6250000  -0.1250000   0.1250000), wk =   0.0000000

     Dense  grid:     2837 G-vectors     FFT dimensions: (  20,  20,  20)

     Estimated max dynamical RAM per process >       0.33MB

     Estimated total allocated dynamical RAM >       1.32MB

     Check: negative/imaginary core charge=   -0.000006    0.000000

     The potential is recalculated from file :
     ./_ph0/silicon.10.351.save/charge-density.dat

     Starting wfc are    8 atomic wfcs

     Band Structure Calculation
     Davidson diagonalization with overlap

     ethr =  1.25E-10,  avg # of iterations = 11.7

     total cpu time spent up to now is        2.2 secs

     End of band structure calculation

          k =-0.1250 0.1250 0.1250 (   344 PWs)   bands (ev):

    -5.6489   4.3405   5.6497   5.6497

          k = 0.3750-0.3750 0.6250 (   361 PWs)   bands (ev):

    -3.5012  -0.7044   3.6936   4.4035

          k =-0.3750 0.3750-0.1250 (   355 PWs)   bands (ev):

    -4.6296   1.3568   3.6774   5.1691

          k = 0.1250-0.1250 0.3750 (   353 PWs)   bands (ev):

    -5.1247   2.7248   4.6483   4.7090

          k = 0.3750-0.3750 0.6250 (   361 PWs)   bands (ev):

    -3.5012  -0.7044   3.6936   4.4035

          k = 0.8750-0.8750 1.1250 (   344 PWs)   bands (ev):

    -5.6489   4.3405   5.6497   5.6497

          k = 0.1250-0.1250 0.3750 (   353 PWs)   bands (ev):

    -5.1247   2.7248   4.6483   4.7090

          k = 0.6250-0.6250 0.8750 (   355 PWs)   bands (ev):

    -4.6296   1.3568   3.6774   5.1691

          k =-0.1250 0.6250 0.1250 (   351 PWs)   bands (ev):

    -4.1002   1.0144   3.3332   3.7792

          k = 0.3750 0.1250 0.6250 (   360 PWs)   bands (ev):

    -3.6889   0.1515   2.6952   4.0535

          k = 0.6250-0.1250 0.8750 (   361 PWs)   bands (ev):

    -2.4737  -0.9390   1.9937   3.0591

          k = 1.1250-0.6250 1.3750 (   355 PWs)   bands (ev):

    -4.6296   1.3568   3.6774   5.1691

          k = 0.3750 0.1250 0.6250 (   360 PWs)   bands (ev):

    -3.6889   0.1515   2.6952   4.0535

          k = 0.8750-0.3750 1.1250 (   351 PWs)   bands (ev):

    -4.1002   1.0144   3.3332   3.7792

          k =-0.1250-0.8750 0.1250 (   360 PWs)   bands (ev):

    -2.6382  -0.8430   2.5962   3.3147

          k = 0.3750-1.3750 0.6250 (   361 PWs)   bands (ev):

    -3.5012  -0.7044   3.6936   4.4035

          k =-0.3750 0.3750 0.3750 (   353 PWs)   bands (ev):

    -4.2011   0.0795   4.8644   4.8644

          k = 0.1250-0.1250 0.8750 (   360 PWs)   bands (ev):

    -2.6382  -0.8430   2.5962   3.3147

          k = 0.3750-0.3750 1.1250 (   363 PWs)   bands (ev):

    -3.0085  -0.6303   2.0484   4.0895

          k = 0.8750-0.8750 1.6250 (   351 PWs)   bands (ev):

    -4.1002   1.0144   3.3332   3.7792

          k = 0.1250-0.1250 0.1250 (   344 PWs)   bands (ev):

    -5.6489   4.3405   5.6497   5.6497

          k = 0.6250-0.6250 0.6250 (   353 PWs)   bands (ev):

    -4.2011   0.0795   4.8644   4.8644

          k =-0.3750-0.3750-0.1250 (   355 PWs)   bands (ev):

    -4.6296   1.3568   3.6774   5.1691

          k = 0.1250-0.8750 0.3750 (   361 PWs)   bands (ev):

    -2.4737  -0.9390   1.9937   3.0591

          k =-0.1250-0.3750 0.3750 (   355 PWs)   bands (ev):

    -4.6296   1.3568   3.6774   5.1691

          k = 0.3750-0.8750 0.8750 (   351 PWs)   bands (ev):

    -4.1002   1.0144   3.3332   3.7792

          k = 0.3750 0.3750 0.6250 (   361 PWs)   bands (ev):

    -3.5012  -0.7044   3.6936   4.4035

          k = 0.8750-0.1250 1.1250 (   360 PWs)   bands (ev):

    -2.6382  -0.8430   2.5962   3.3147

          k = 0.6250 0.3750-0.3750 (   361 PWs)   bands (ev):

    -3.5012  -0.7044   3.6936   4.4035

          k = 1.1250-0.1250 0.1250 (   360 PWs)   bands (ev):

    -2.6382  -0.8430   2.5962   3.3147

          k = 0.1250 0.1250 0.3750 (   353 PWs)   bands (ev):

    -5.1247   2.7248   4.6483   4.7090

          k = 0.6250-0.3750 0.8750 (   360 PWs)   bands (ev):

    -3.6889   0.1515   2.6952   4.0535

          k = 0.3750 0.1250-0.1250 (   353 PWs)   bands (ev):

    -5.1247   2.7248   4.6483   4.7090

          k = 0.8750-0.3750 0.3750 (   363 PWs)   bands (ev):

    -3.0085  -0.6303   2.0484   4.0895

          k =-0.1250-0.6250-0.1250 (   351 PWs)   bands (ev):

    -4.1002   1.0144   3.3332   3.7792

          k = 0.3750-1.1250 0.3750 (   363 PWs)   bands (ev):

    -3.0085  -0.6303   2.0484   4.0895

          k = 0.1250-0.6250 0.1250 (   351 PWs)   bands (ev):

    -4.1002   1.0144   3.3332   3.7792

          k = 0.6250-1.1250 0.6250 (   355 PWs)   bands (ev):

    -4.6296   1.3568   3.6774   5.1691

          k = 0.6250 0.1250 0.8750 (   361 PWs)   bands (ev):

    -2.4737  -0.9390   1.9937   3.0591

          k = 1.1250-0.3750 1.3750 (   360 PWs)   bands (ev):

    -3.6889   0.1515   2.6952   4.0535

          k =-0.8750 0.1250 0.6250 (   361 PWs)   bands (ev):

    -2.4737  -0.9390   1.9937   3.0591

          k =-0.3750-0.3750 1.1250 (   363 PWs)   bands (ev):

    -3.0085  -0.6303   2.0484   4.0895

          k = 0.8750 0.1250-0.6250 (   361 PWs)   bands (ev):

    -2.4737  -0.9390   1.9937   3.0591

          k = 1.3750-0.3750-0.1250 (   360 PWs)   bands (ev):

    -3.6889   0.1515   2.6952   4.0535

          k = 0.3750-0.1250 0.6250 (   360 PWs)   bands (ev):

    -3.6889   0.1515   2.6952   4.0535

          k = 0.8750-0.6250 1.1250 (   353 PWs)   bands (ev):

    -5.1247   2.7248   4.6483   4.7090

          k =-0.6250-0.1250 0.3750 (   360 PWs)   bands (ev):

    -3.6889   0.1515   2.6952   4.0535

          k =-0.1250-0.6250 0.8750 (   361 PWs)   bands (ev):

    -2.4737  -0.9390   1.9937   3.0591

          k = 0.6250-0.1250-0.3750 (   360 PWs)   bands (ev):

    -3.6889   0.1515   2.6952   4.0535

          k = 1.1250-0.6250 0.1250 (   361 PWs)   bands (ev):

    -2.4737  -0.9390   1.9937   3.0591

          k =-0.1250 0.8750-0.1250 (   360 PWs)   bands (ev):

    -2.6382  -0.8430   2.5962   3.3147

          k = 0.3750 0.3750 0.3750 (   353 PWs)   bands (ev):

    -4.2011   0.0795   4.8644   4.8644

          k = 0.1250 0.8750 0.1250 (   360 PWs)   bands (ev):

    -2.6382  -0.8430   2.5962   3.3147

          k = 0.6250 0.3750 0.6250 (   361 PWs)   bands (ev):

    -3.5012  -0.7044   3.6936   4.4035

          k = 0.3750-0.3750 0.3750 (   353 PWs)   bands (ev):

    -4.2011   0.0795   4.8644   4.8644

          k = 0.8750-0.8750 0.8750 (   344 PWs)   bands (ev):

    -5.6489   4.3405   5.6497   5.6497

          k = 0.3750 0.3750 1.1250 (   363 PWs)   bands (ev):

    -3.0085  -0.6303   2.0484   4.0895

          k = 0.8750-0.1250 1.6250 (   361 PWs)   bands (ev):

    -2.4737  -0.9390   1.9937   3.0591

          k = 1.1250 0.3750-0.3750 (   363 PWs)   bands (ev):

    -3.0085  -0.6303   2.0484   4.0895

          k = 1.6250-0.1250 0.1250 (   353 PWs)   bands (ev):

    -5.1247   2.7248   4.6483   4.7090

     highest occupied level (ev):     5.6497

     Writing output data file silicon.10.351.save

                                                                                

     bravais-lattice index     =            2
     lattice parameter (alat)  =      10.3510  a.u.
     unit-cell volume          =     277.2598 (a.u.)^3
     number of atoms/cell      =            2
     number of atomic types    =            1
     kinetic-energy cut-off    =      18.0000  Ry
     charge density cut-off    =      72.0000  Ry
     convergence threshold     =      1.0E-12
     beta                      =       0.7000
     number of iterations used =            4
     Exchange-correlation      = SLA  PW   PBE  PBE ( 1  4  3  4 0 0)


     celldm(1)=   10.35100  celldm(2)=    0.00000  celldm(3)=    0.00000
     celldm(4)=    0.00000  celldm(5)=    0.00000  celldm(6)=    0.00000

     crystal axes: (cart. coord. in units of alat)
               a(1) = ( -0.5000  0.0000  0.5000 )  
               a(2) = (  0.0000  0.5000  0.5000 )  
               a(3) = ( -0.5000  0.5000  0.0000 )  

     reciprocal axes: (cart. coord. in units 2 pi/alat)
               b(1) = ( -1.0000 -1.0000  1.0000 )  
               b(2) = (  1.0000  1.0000  1.0000 )  
               b(3) = ( -1.0000  1.0000 -1.0000 )  


     Atoms inside the unit cell: 

     Cartesian axes

     site n.  atom      mass           positions (alat units)
        1     Si  28.0860   tau(    1) = (    0.00000    0.00000    0.00000  )
        2     Si  28.0860   tau(    2) = (    0.25000    0.25000    0.25000  )

     Computing dynamical matrix for 
                    q = (   0.5000000  -0.5000000   0.5000000 )

     13 Sym.Ops. (with q -> -q+G )


     G cutoff =  195.4058  (    710 G-vectors)     FFT grid: ( 20, 20, 20)
     number of k points=    60

     PseudoPot. # 1 for Si read from file:
     /home/max/quantum_espresso/qe-6.1/pseudo/si_pbe_v1.uspp.F.UPF.txt
     MD5 check sum: a056efeee980c13900f22a371efd63c1
     Pseudo is Ultrasoft + core correction, Zval =  4.0
     Generated by new atomic code, or converted to UPF format
     Using radial grid of  899 points,  6 beta functions with: 
                l(1) =   0
                l(2) =   0
                l(3) =   1
                l(4) =   1
                l(5) =   2
                l(6) =   2
     Q(r) pseudized with  8 coefficients,  rinner =    0.900   0.900   0.900
                                                       0.900   0.900


     Atomic displacements:
     There are   4 irreducible representations

     Representation     1      1 modes -  To be done

     Representation     2      1 modes -  To be done

     Representation     3      2 modes -  To be done

     Representation     4      2 modes -  To be done



     Alpha used in Ewald sum =   0.7000
     PHONON       :    18.78s CPU        21.83s WALL



     Representation #  1 mode #   1

     Self-consistent Calculation

      iter #   1 total cpu time :    22.0 secs   av.it.:   4.8
      thresh= 1.000E-02 alpha_mix =  0.700 |ddv_scf|^2 =  2.480E-05

      iter #   2 total cpu time :    22.1 secs   av.it.:   8.3
      thresh= 4.980E-04 alpha_mix =  0.700 |ddv_scf|^2 =  2.215E-05

      iter #   3 total cpu time :    22.3 secs   av.it.:   7.5
      thresh= 4.706E-04 alpha_mix =  0.700 |ddv_scf|^2 =  4.381E-08

      iter #   4 total cpu time :    22.4 secs   av.it.:   7.4
      thresh= 2.093E-05 alpha_mix =  0.700 |ddv_scf|^2 =  1.349E-10

      iter #   5 total cpu time :    22.6 secs   av.it.:   8.0
      thresh= 1.161E-06 alpha_mix =  0.700 |ddv_scf|^2 =  3.548E-12

      iter #   6 total cpu time :    22.7 secs   av.it.:   7.9
      thresh= 1.883E-07 alpha_mix =  0.700 |ddv_scf|^2 =  4.303E-14

     End of self-consistent calculation

     Convergence has been achieved 


     Representation #  2 mode #   2

     Self-consistent Calculation

      iter #   1 total cpu time :    22.9 secs   av.it.:   5.7
      thresh= 1.000E-02 alpha_mix =  0.700 |ddv_scf|^2 =  3.442E-04

      iter #   2 total cpu time :    23.4 secs   av.it.:   8.3
      thresh= 1.855E-03 alpha_mix =  0.700 |ddv_scf|^2 =  1.061E-03

      iter #   3 total cpu time :    23.6 secs   av.it.:   7.1
      thresh= 3.258E-03 alpha_mix =  0.700 |ddv_scf|^2 =  1.319E-07

      iter #   4 total cpu time :    23.7 secs   av.it.:   8.1
      thresh= 3.632E-05 alpha_mix =  0.700 |ddv_scf|^2 =  8.570E-09

      iter #   5 total cpu time :    23.9 secs   av.it.:   8.5
      thresh= 9.258E-06 alpha_mix =  0.700 |ddv_scf|^2 =  1.353E-10

      iter #   6 total cpu time :    24.1 secs   av.it.:   8.2
      thresh= 1.163E-06 alpha_mix =  0.700 |ddv_scf|^2 =  2.532E-12

      iter #   7 total cpu time :    24.2 secs   av.it.:   7.8
      thresh= 1.591E-07 alpha_mix =  0.700 |ddv_scf|^2 =  5.005E-15

     End of self-consistent calculation

     Convergence has been achieved 


     Representation #  3 modes #   3  4

     Self-consistent Calculation

      iter #   1 total cpu time :    24.5 secs   av.it.:   4.7
      thresh= 1.000E-02 alpha_mix =  0.700 |ddv_scf|^2 =  3.338E-07

      iter #   2 total cpu time :    24.8 secs   av.it.:   9.0
      thresh= 5.778E-05 alpha_mix =  0.700 |ddv_scf|^2 =  2.832E-08

      iter #   3 total cpu time :    25.5 secs   av.it.:   8.4
      thresh= 1.683E-05 alpha_mix =  0.700 |ddv_scf|^2 =  5.021E-10

      iter #   4 total cpu time :    25.8 secs   av.it.:   8.9
      thresh= 2.241E-06 alpha_mix =  0.700 |ddv_scf|^2 =  6.223E-12

      iter #   5 total cpu time :    26.1 secs   av.it.:   8.7
      thresh= 2.495E-07 alpha_mix =  0.700 |ddv_scf|^2 =  3.121E-14

     End of self-consistent calculation

     Convergence has been achieved 


     Representation #  4 modes #   5  6

     Self-consistent Calculation

      iter #   1 total cpu time :    26.4 secs   av.it.:   5.0
      thresh= 1.000E-02 alpha_mix =  0.700 |ddv_scf|^2 =  9.867E-07

      iter #   2 total cpu time :    26.8 secs   av.it.:   9.4
      thresh= 9.933E-05 alpha_mix =  0.700 |ddv_scf|^2 =  7.754E-08

      iter #   3 total cpu time :    27.5 secs   av.it.:   9.3
      thresh= 2.785E-05 alpha_mix =  0.700 |ddv_scf|^2 =  5.041E-09

      iter #   4 total cpu time :    27.8 secs   av.it.:   8.5
      thresh= 7.100E-06 alpha_mix =  0.700 |ddv_scf|^2 =  6.480E-12

      iter #   5 total cpu time :    28.1 secs   av.it.:   8.8
      thresh= 2.546E-07 alpha_mix =  0.700 |ddv_scf|^2 =  2.349E-14

     End of self-consistent calculation

     Convergence has been achieved 

     Number of q in the star =    4
     List of q in the star:
          1   0.500000000  -0.500000000   0.500000000
          2   0.500000000   0.500000000   0.500000000
          3  -0.500000000   0.500000000   0.500000000
          4   0.500000000   0.500000000  -0.500000000

     Diagonalizing the dynamical matrix

     q = (    0.500000000  -0.500000000   0.500000000 ) 

 **************************************************************************
     freq (    1) =       4.800653 [THz] =     160.132550 [cm-1]
     freq (    2) =       4.800653 [THz] =     160.132550 [cm-1]
     freq (    3) =      11.808417 [THz] =     393.886378 [cm-1]
     freq (    4) =      12.090376 [THz] =     403.291541 [cm-1]
     freq (    5) =      14.623808 [THz] =     487.797717 [cm-1]
     freq (    6) =      14.623808 [THz] =     487.797717 [cm-1]
 **************************************************************************

     Calculation of q =    0.0000000   0.5000000   0.0000000

   Info: using nr1, nr2, nr3 values from input

   Info: using nr1, nr2, nr3 values from input

     Parallelization info
     --------------------
     sticks:   dense  smooth     PW     G-vecs:    dense   smooth      PW
     Min          64      64     27                  709      709     175
     Max          67      67     28                  710      710     176
     Sum         265     265    109                 2837     2837     701



     bravais-lattice index     =            2
     lattice parameter (alat)  =      10.3510  a.u.
     unit-cell volume          =     277.2598 (a.u.)^3
     number of atoms/cell      =            2
     number of atomic types    =            1
     number of electrons       =         8.00
     number of Kohn-Sham states=            4
     kinetic-energy cutoff     =      18.0000  Ry
     charge density cutoff     =      72.0000  Ry
     Exchange-correlation      = SLA  PW   PBE  PBE ( 1  4  3  4 0 0)

     celldm(1)=  10.351000  celldm(2)=   0.000000  celldm(3)=   0.000000
     celldm(4)=   0.000000  celldm(5)=   0.000000  celldm(6)=   0.000000

     crystal axes: (cart. coord. in units of alat)
               a(1) = (  -0.500000   0.000000   0.500000 )  
               a(2) = (   0.000000   0.500000   0.500000 )  
               a(3) = (  -0.500000   0.500000   0.000000 )  

     reciprocal axes: (cart. coord. in units 2 pi/alat)
               b(1) = ( -1.000000 -1.000000  1.000000 )  
               b(2) = (  1.000000  1.000000  1.000000 )  
               b(3) = ( -1.000000  1.000000 -1.000000 )  


     PseudoPot. # 1 for Si read from file:
     /home/max/quantum_espresso/qe-6.1/pseudo/si_pbe_v1.uspp.F.UPF.txt
     MD5 check sum: a056efeee980c13900f22a371efd63c1
     Pseudo is Ultrasoft + core correction, Zval =  4.0
     Generated by new atomic code, or converted to UPF format
     Using radial grid of  899 points,  6 beta functions with: 
                l(1) =   0
                l(2) =   0
                l(3) =   1
                l(4) =   1
                l(5) =   2
                l(6) =   2
     Q(r) pseudized with  8 coefficients,  rinner =    0.900   0.900   0.900
                                                       0.900   0.900

     atomic species   valence    mass     pseudopotential
        Si             4.00    28.08600     Si( 1.00)

     48 Sym. Ops., with inversion, found



   Cartesian axes

     site n.     atom                  positions (alat units)
         1           Si  tau(   1) = (   0.0000000   0.0000000   0.0000000  )
         2           Si  tau(   2) = (   0.2500000   0.2500000   0.2500000  )

     number of k points=    80
                       cart. coord. in units 2pi/alat
        k(    1) = (  -0.1250000   0.1250000   0.1250000), wk =   0.0312500
        k(    2) = (  -0.1250000   0.6250000   0.1250000), wk =   0.0000000
        k(    3) = (  -0.3750000   0.3750000  -0.1250000), wk =   0.0625000
        k(    4) = (  -0.3750000   0.8750000  -0.1250000), wk =   0.0000000
        k(    5) = (   0.3750000  -0.3750000   0.6250000), wk =   0.0625000
        k(    6) = (   0.3750000   0.1250000   0.6250000), wk =   0.0000000
        k(    7) = (   0.1250000  -0.1250000   0.3750000), wk =   0.0625000
        k(    8) = (   0.1250000   0.3750000   0.3750000), wk =   0.0000000
        k(    9) = (  -0.1250000   0.6250000   0.1250000), wk =   0.0312500
        k(   10) = (  -0.1250000   1.1250000   0.1250000), wk =   0.0000000
        k(   11) = (   0.6250000  -0.1250000   0.8750000), wk =   0.0625000
        k(   12) = (   0.6250000   0.3750000   0.8750000), wk =   0.0000000
        k(   13) = (   0.3750000   0.1250000   0.6250000), wk =   0.0625000
        k(   14) = (   0.3750000   0.6250000   0.6250000), wk =   0.0000000
        k(   15) = (  -0.1250000  -0.8750000   0.1250000), wk =   0.0312500
        k(   16) = (  -0.1250000  -0.3750000   0.1250000), wk =   0.0000000
        k(   17) = (  -0.3750000   0.3750000   0.3750000), wk =   0.0312500
        k(   18) = (  -0.3750000   0.8750000   0.3750000), wk =   0.0000000
        k(   19) = (   0.3750000  -0.3750000   1.1250000), wk =   0.0625000
        k(   20) = (   0.3750000   0.1250000   1.1250000), wk =   0.0000000
        k(   21) = (  -0.1250000  -0.1250000   0.1250000), wk =   0.0312500
        k(   22) = (  -0.1250000   0.3750000   0.1250000), wk =   0.0000000
        k(   23) = (   0.1250000  -0.3750000   0.3750000), wk =   0.0625000
        k(   24) = (   0.1250000   0.1250000   0.3750000), wk =   0.0000000
        k(   25) = (   0.3750000  -0.1250000   0.3750000), wk =   0.0312500
        k(   26) = (   0.3750000   0.3750000   0.3750000), wk =   0.0000000
        k(   27) = (   0.3750000   0.1250000   0.3750000), wk =   0.0312500
        k(   28) = (   0.3750000   0.6250000   0.3750000), wk =   0.0000000
        k(   29) = (  -0.6250000   0.3750000  -0.3750000), wk =   0.0625000
        k(   30) = (  -0.6250000   0.8750000  -0.3750000), wk =   0.0000000
        k(   31) = (  -0.3750000   0.6250000  -0.3750000), wk =   0.0312500
        k(   32) = (  -0.3750000   1.1250000  -0.3750000), wk =   0.0000000
        k(   33) = (  -0.3750000  -0.6250000  -0.3750000), wk =   0.0312500
        k(   34) = (  -0.3750000  -0.1250000  -0.3750000), wk =   0.0000000
        k(   35) = (  -0.3750000   0.1250000  -0.1250000), wk =   0.0625000
        k(   36) = (  -0.3750000   0.6250000  -0.1250000), wk =   0.0000000
        k(   37) = (  -0.1250000   0.3750000  -0.1250000), wk =   0.0312500
        k(   38) = (  -0.1250000   0.8750000  -0.1250000), wk =   0.0000000
        k(   39) = (  -0.1250000  -0.3750000  -0.1250000), wk =   0.0312500
        k(   40) = (  -0.1250000   0.1250000  -0.1250000), wk =   0.0000000
        k(   41) = (  -0.1250000  -0.6250000   0.1250000), wk =   0.0312500
        k(   42) = (  -0.1250000  -0.1250000   0.1250000), wk =   0.0000000
        k(   43) = (   0.6250000  -0.1250000  -0.1250000), wk =   0.0625000
        k(   44) = (   0.6250000   0.3750000  -0.1250000), wk =   0.0000000
        k(   45) = (   0.6250000   0.1250000   0.1250000), wk =   0.0625000
        k(   46) = (   0.6250000   0.6250000   0.1250000), wk =   0.0000000
        k(   47) = (  -0.8750000   0.1250000  -0.6250000), wk =   0.0625000
        k(   48) = (  -0.8750000   0.6250000  -0.6250000), wk =   0.0000000
        k(   49) = (  -0.1250000   0.6250000  -0.8750000), wk =   0.0625000
        k(   50) = (  -0.1250000   1.1250000  -0.8750000), wk =   0.0000000
        k(   51) = (  -0.1250000   0.8750000  -0.6250000), wk =   0.0625000
        k(   52) = (  -0.1250000   1.3750000  -0.6250000), wk =   0.0000000
        k(   53) = (  -0.1250000  -0.8750000  -0.6250000), wk =   0.0625000
        k(   54) = (  -0.1250000  -0.3750000  -0.6250000), wk =   0.0000000
        k(   55) = (   0.8750000  -0.6250000   0.1250000), wk =   0.0625000
        k(   56) = (   0.8750000  -0.1250000   0.1250000), wk =   0.0000000
        k(   57) = (  -0.6250000  -0.1250000  -0.3750000), wk =   0.0625000
        k(   58) = (  -0.6250000   0.3750000  -0.3750000), wk =   0.0000000
        k(   59) = (   0.1250000   0.3750000  -0.6250000), wk =   0.0625000
        k(   60) = (   0.1250000   0.8750000  -0.6250000), wk =   0.0000000
        k(   61) = (   0.1250000   0.6250000  -0.3750000), wk =   0.0625000
        k(   62) = (   0.1250000   1.1250000  -0.3750000), wk =   0.0000000
        k(   63) = (   0.1250000  -0.6250000  -0.3750000), wk =   0.0625000
        k(   64) = (   0.1250000  -0.1250000  -0.3750000), wk =   0.0000000
        k(   65) = (   0.6250000  -0.3750000  -0.1250000), wk =   0.0625000
        k(   66) = (   0.6250000   0.1250000  -0.1250000), wk =   0.0000000
        k(   67) = (  -0.1250000   0.8750000   0.1250000), wk =   0.0312500
        k(   68) = (  -0.1250000   1.3750000   0.1250000), wk =   0.0000000
        k(   69) = (  -0.8750000  -0.1250000  -0.1250000), wk =   0.0625000
        k(   70) = (  -0.8750000   0.3750000  -0.1250000), wk =   0.0000000
        k(   71) = (  -0.8750000   0.1250000   0.1250000), wk =   0.0625000
        k(   72) = (  -0.8750000   0.6250000   0.1250000), wk =   0.0000000
        k(   73) = (  -0.3750000  -0.3750000   0.3750000), wk =   0.0312500
        k(   74) = (  -0.3750000   0.1250000   0.3750000), wk =   0.0000000
        k(   75) = (  -1.1250000   0.3750000  -0.3750000), wk =   0.0625000
        k(   76) = (  -1.1250000   0.8750000  -0.3750000), wk =   0.0000000
        k(   77) = (  -0.3750000   1.1250000  -0.3750000), wk =   0.0312500
        k(   78) = (  -0.3750000   1.6250000  -0.3750000), wk =   0.0000000
        k(   79) = (  -0.3750000  -1.1250000  -0.3750000), wk =   0.0312500
        k(   80) = (  -0.3750000  -0.6250000  -0.3750000), wk =   0.0000000

     Dense  grid:     2837 G-vectors     FFT dimensions: (  20,  20,  20)

     Estimated max dynamical RAM per process >       0.33MB

     Estimated total allocated dynamical RAM >       1.32MB

     Check: negative/imaginary core charge=   -0.000006    0.000000

     The potential is recalculated from file :
     ./_ph0/silicon.10.351.save/charge-density.dat

     Starting wfc are    8 atomic wfcs

     Band Structure Calculation
     Davidson diagonalization with overlap

     ethr =  1.25E-10,  avg # of iterations = 11.7

     total cpu time spent up to now is        3.0 secs

     End of band structure calculation

          k =-0.1250 0.1250 0.1250 (   344 PWs)   bands (ev):

    -5.6489   4.3405   5.6497   5.6497

          k =-0.1250 0.6250 0.1250 (   351 PWs)   bands (ev):

    -4.1002   1.0144   3.3332   3.7792

          k =-0.3750 0.3750-0.1250 (   355 PWs)   bands (ev):

    -4.6296   1.3568   3.6774   5.1691

          k =-0.3750 0.8750-0.1250 (   361 PWs)   bands (ev):

    -2.4737  -0.9390   1.9937   3.0591

          k = 0.3750-0.3750 0.6250 (   361 PWs)   bands (ev):

    -3.5012  -0.7044   3.6936   4.4035

          k = 0.3750 0.1250 0.6250 (   360 PWs)   bands (ev):

    -3.6889   0.1515   2.6952   4.0535

          k = 0.1250-0.1250 0.3750 (   353 PWs)   bands (ev):

    -5.1247   2.7248   4.6483   4.7090

          k = 0.1250 0.3750 0.3750 (   355 PWs)   bands (ev):

    -4.6296   1.3568   3.6774   5.1691

          k =-0.1250 0.6250 0.1250 (   351 PWs)   bands (ev):

    -4.1002   1.0144   3.3332   3.7792

          k =-0.1250 1.1250 0.1250 (   360 PWs)   bands (ev):

    -2.6382  -0.8430   2.5962   3.3147

          k = 0.6250-0.1250 0.8750 (   361 PWs)   bands (ev):

    -2.4737  -0.9390   1.9937   3.0591

          k = 0.6250 0.3750 0.8750 (   360 PWs)   bands (ev):

    -3.6889   0.1515   2.6952   4.0535

          k = 0.3750 0.1250 0.6250 (   360 PWs)   bands (ev):

    -3.6889   0.1515   2.6952   4.0535

          k = 0.3750 0.6250 0.6250 (   361 PWs)   bands (ev):

    -3.5012  -0.7044   3.6936   4.4035

          k =-0.1250-0.8750 0.1250 (   360 PWs)   bands (ev):

    -2.6382  -0.8430   2.5962   3.3147

          k =-0.1250-0.3750 0.1250 (   353 PWs)   bands (ev):

    -5.1247   2.7248   4.6483   4.7090

          k =-0.3750 0.3750 0.3750 (   353 PWs)   bands (ev):

    -4.2011   0.0795   4.8644   4.8644

          k =-0.3750 0.8750 0.3750 (   363 PWs)   bands (ev):

    -3.0085  -0.6303   2.0484   4.0895

          k = 0.3750-0.3750 1.1250 (   363 PWs)   bands (ev):

    -3.0085  -0.6303   2.0484   4.0895

          k = 0.3750 0.1250 1.1250 (   361 PWs)   bands (ev):

    -2.4737  -0.9390   1.9937   3.0591

          k =-0.1250-0.1250 0.1250 (   344 PWs)   bands (ev):

    -5.6489   4.3405   5.6497   5.6497

          k =-0.1250 0.3750 0.1250 (   353 PWs)   bands (ev):

    -5.1247   2.7248   4.6483   4.7090

          k = 0.1250-0.3750 0.3750 (   355 PWs)   bands (ev):

    -4.6296   1.3568   3.6774   5.1691

          k = 0.1250 0.1250 0.3750 (   353 PWs)   bands (ev):

    -5.1247   2.7248   4.6483   4.7090

          k = 0.3750-0.1250 0.3750 (   355 PWs)   bands (ev):

    -4.6296   1.3568   3.6774   5.1691

          k = 0.3750 0.3750 0.3750 (   353 PWs)   bands (ev):

    -4.2011   0.0795   4.8644   4.8644

          k = 0.3750 0.1250 0.3750 (   355 PWs)   bands (ev):

    -4.6296   1.3568   3.6774   5.1691

          k = 0.3750 0.6250 0.3750 (   361 PWs)   bands (ev):

    -3.5012  -0.7044   3.6936   4.4035

          k =-0.6250 0.3750-0.3750 (   361 PWs)   bands (ev):

    -3.5012  -0.7044   3.6936   4.4035

          k =-0.6250 0.8750-0.3750 (   360 PWs)   bands (ev):

    -3.6889   0.1515   2.6952   4.0535

          k =-0.3750 0.6250-0.3750 (   361 PWs)   bands (ev):

    -3.5012  -0.7044   3.6936   4.4035

          k =-0.3750 1.1250-0.3750 (   363 PWs)   bands (ev):

    -3.0085  -0.6303   2.0484   4.0895

          k =-0.3750-0.6250-0.3750 (   361 PWs)   bands (ev):

    -3.5012  -0.7044   3.6936   4.4035

          k =-0.3750-0.1250-0.3750 (   355 PWs)   bands (ev):

    -4.6296   1.3568   3.6774   5.1691

          k =-0.3750 0.1250-0.1250 (   353 PWs)   bands (ev):

    -5.1247   2.7248   4.6483   4.7090

          k =-0.3750 0.6250-0.1250 (   360 PWs)   bands (ev):

    -3.6889   0.1515   2.6952   4.0535

          k =-0.1250 0.3750-0.1250 (   353 PWs)   bands (ev):

    -5.1247   2.7248   4.6483   4.7090

          k =-0.1250 0.8750-0.1250 (   360 PWs)   bands (ev):

    -2.6382  -0.8430   2.5962   3.3147

          k =-0.1250-0.3750-0.1250 (   353 PWs)   bands (ev):

    -5.1247   2.7248   4.6483   4.7090

          k =-0.1250 0.1250-0.1250 (   344 PWs)   bands (ev):

    -5.6489   4.3405   5.6497   5.6497

          k =-0.1250-0.6250 0.1250 (   351 PWs)   bands (ev):

    -4.1002   1.0144   3.3332   3.7792

          k =-0.1250-0.1250 0.1250 (   344 PWs)   bands (ev):

    -5.6489   4.3405   5.6497   5.6497

          k = 0.6250-0.1250-0.1250 (   351 PWs)   bands (ev):

    -4.1002   1.0144   3.3332   3.7792

          k = 0.6250 0.3750-0.1250 (   360 PWs)   bands (ev):

    -3.6889   0.1515   2.6952   4.0535

          k = 0.6250 0.1250 0.1250 (   351 PWs)   bands (ev):

    -4.1002   1.0144   3.3332   3.7792

          k = 0.6250 0.6250 0.1250 (   363 PWs)   bands (ev):

    -3.0085  -0.6303   2.0484   4.0895

          k =-0.8750 0.1250-0.6250 (   361 PWs)   bands (ev):

    -2.4737  -0.9390   1.9937   3.0591

          k =-0.8750 0.6250-0.6250 (   355 PWs)   bands (ev):

    -4.6296   1.3568   3.6774   5.1691

          k =-0.1250 0.6250-0.8750 (   361 PWs)   bands (ev):

    -2.4737  -0.9390   1.9937   3.0591

          k =-0.1250 1.1250-0.8750 (   360 PWs)   bands (ev):

    -2.6382  -0.8430   2.5962   3.3147

          k =-0.1250 0.8750-0.6250 (   361 PWs)   bands (ev):

    -2.4737  -0.9390   1.9937   3.0591

          k =-0.1250 1.3750-0.6250 (   363 PWs)   bands (ev):

    -3.0085  -0.6303   2.0484   4.0895

          k =-0.1250-0.8750-0.6250 (   361 PWs)   bands (ev):

    -2.4737  -0.9390   1.9937   3.0591

          k =-0.1250-0.3750-0.6250 (   360 PWs)   bands (ev):

    -3.6889   0.1515   2.6952   4.0535

          k = 0.8750-0.6250 0.1250 (   361 PWs)   bands (ev):

    -2.4737  -0.9390   1.9937   3.0591

          k = 0.8750-0.1250 0.1250 (   360 PWs)   bands (ev):

    -2.6382  -0.8430   2.5962   3.3147

          k =-0.6250-0.1250-0.3750 (   360 PWs)   bands (ev):

    -3.6889   0.1515   2.6952   4.0535

          k =-0.6250 0.3750-0.3750 (   361 PWs)   bands (ev):

    -3.5012  -0.7044   3.6936   4.4035

          k = 0.1250 0.3750-0.6250 (   360 PWs)   bands (ev):

    -3.6889   0.1515   2.6952   4.0535

          k = 0.1250 0.8750-0.6250 (   361 PWs)   bands (ev):

    -2.4737  -0.9390   1.9937   3.0591

          k = 0.1250 0.6250-0.3750 (   360 PWs)   bands (ev):

    -3.6889   0.1515   2.6952   4.0535

          k = 0.1250 1.1250-0.3750 (   361 PWs)   bands (ev):

    -2.4737  -0.9390   1.9937   3.0591

          k = 0.1250-0.6250-0.3750 (   360 PWs)   bands (ev):

    -3.6889   0.1515   2.6952   4.0535

          k = 0.1250-0.1250-0.3750 (   353 PWs)   bands (ev):

    -5.1247   2.7248   4.6483   4.7090

          k = 0.6250-0.3750-0.1250 (   360 PWs)   bands (ev):

    -3.6889   0.1515   2.6952   4.0535

          k = 0.6250 0.1250-0.1250 (   351 PWs)   bands (ev):

    -4.1002   1.0144   3.3332   3.7792

          k =-0.1250 0.8750 0.1250 (   360 PWs)   bands (ev):

    -2.6382  -0.8430   2.5962   3.3147

          k =-0.1250 1.3750 0.1250 (   351 PWs)   bands (ev):

    -4.1002   1.0144   3.3332   3.7792

          k =-0.8750-0.1250-0.1250 (   360 PWs)   bands (ev):

    -2.6382  -0.8430   2.5962   3.3147

          k =-0.8750 0.3750-0.1250 (   361 PWs)   bands (ev):

    -2.4737  -0.9390   1.9937   3.0591

          k =-0.8750 0.1250 0.1250 (   360 PWs)   bands (ev):

    -2.6382  -0.8430   2.5962   3.3147

          k =-0.8750 0.6250 0.1250 (   361 PWs)   bands (ev):

    -2.4737  -0.9390   1.9937   3.0591

          k =-0.3750-0.3750 0.3750 (   353 PWs)   bands (ev):

    -4.2011   0.0795   4.8644   4.8644

          k =-0.3750 0.1250 0.3750 (   355 PWs)   bands (ev):

    -4.6296   1.3568   3.6774   5.1691

          k =-1.1250 0.3750-0.3750 (   363 PWs)   bands (ev):

    -3.0085  -0.6303   2.0484   4.0895

          k =-1.1250 0.8750-0.3750 (   351 PWs)   bands (ev):

    -4.1002   1.0144   3.3332   3.7792

          k =-0.3750 1.1250-0.3750 (   363 PWs)   bands (ev):

    -3.0085  -0.6303   2.0484   4.0895

          k =-0.3750 1.6250-0.3750 (   353 PWs)   bands (ev):

    -4.2011   0.0795   4.8644   4.8644

          k =-0.3750-1.1250-0.3750 (   363 PWs)   bands (ev):

    -3.0085  -0.6303   2.0484   4.0895

          k =-0.3750-0.6250-0.3750 (   361 PWs)   bands (ev):

    -3.5012  -0.7044   3.6936   4.4035

     highest occupied level (ev):     5.6497

     Writing output data file silicon.10.351.save

                                                                                

     bravais-lattice index     =            2
     lattice parameter (alat)  =      10.3510  a.u.
     unit-cell volume          =     277.2598 (a.u.)^3
     number of atoms/cell      =            2
     number of atomic types    =            1
     kinetic-energy cut-off    =      18.0000  Ry
     charge density cut-off    =      72.0000  Ry
     convergence threshold     =      1.0E-12
     beta                      =       0.7000
     number of iterations used =            4
     Exchange-correlation      = SLA  PW   PBE  PBE ( 1  4  3  4 0 0)


     celldm(1)=   10.35100  celldm(2)=    0.00000  celldm(3)=    0.00000
     celldm(4)=    0.00000  celldm(5)=    0.00000  celldm(6)=    0.00000

     crystal axes: (cart. coord. in units of alat)
               a(1) = ( -0.5000  0.0000  0.5000 )  
               a(2) = (  0.0000  0.5000  0.5000 )  
               a(3) = ( -0.5000  0.5000  0.0000 )  

     reciprocal axes: (cart. coord. in units 2 pi/alat)
               b(1) = ( -1.0000 -1.0000  1.0000 )  
               b(2) = (  1.0000  1.0000  1.0000 )  
               b(3) = ( -1.0000  1.0000 -1.0000 )  


     Atoms inside the unit cell: 

     Cartesian axes

     site n.  atom      mass           positions (alat units)
        1     Si  28.0860   tau(    1) = (    0.00000    0.00000    0.00000  )
        2     Si  28.0860   tau(    2) = (    0.25000    0.25000    0.25000  )

     Computing dynamical matrix for 
                    q = (   0.0000000   0.5000000   0.0000000 )

      8 Sym.Ops. (no q -> -q+G )


     G cutoff =  195.4058  (    710 G-vectors)     FFT grid: ( 20, 20, 20)
     number of k points=    80

     PseudoPot. # 1 for Si read from file:
     /home/max/quantum_espresso/qe-6.1/pseudo/si_pbe_v1.uspp.F.UPF.txt
     MD5 check sum: a056efeee980c13900f22a371efd63c1
     Pseudo is Ultrasoft + core correction, Zval =  4.0
     Generated by new atomic code, or converted to UPF format
     Using radial grid of  899 points,  6 beta functions with: 
                l(1) =   0
                l(2) =   0
                l(3) =   1
                l(4) =   1
                l(5) =   2
                l(6) =   2
     Q(r) pseudized with  8 coefficients,  rinner =    0.900   0.900   0.900
                                                       0.900   0.900

     Mode symmetry, C_4v (4mm)  point group:


     Atomic displacements:
     There are   4 irreducible representations

     Representation     1      1 modes -A_1  G_1 D_1  To be done

     Representation     2      1 modes -B_2  G_4 D_2'  To be done

     Representation     3      2 modes -E    G_5 D_5  To be done

     Representation     4      2 modes -E    G_5 D_5  To be done



     Alpha used in Ewald sum =   0.7000
     PHONON       :    25.87s CPU        29.52s WALL



     Representation #  1 mode #   1

     Self-consistent Calculation

      iter #   1 total cpu time :    29.7 secs   av.it.:   5.8
      thresh= 1.000E-02 alpha_mix =  0.700 |ddv_scf|^2 =  2.959E-03

      iter #   2 total cpu time :    29.9 secs   av.it.:   7.7
      thresh= 5.440E-03 alpha_mix =  0.700 |ddv_scf|^2 =  3.902E-02

      iter #   3 total cpu time :    30.1 secs   av.it.:   6.7
      thresh= 1.000E-02 alpha_mix =  0.700 |ddv_scf|^2 =  1.492E-07

      iter #   4 total cpu time :    30.3 secs   av.it.:   8.1
      thresh= 3.862E-05 alpha_mix =  0.700 |ddv_scf|^2 =  1.431E-08

      iter #   5 total cpu time :    30.5 secs   av.it.:   7.8
      thresh= 1.196E-05 alpha_mix =  0.700 |ddv_scf|^2 =  7.186E-10

      iter #   6 total cpu time :    30.7 secs   av.it.:   7.9
      thresh= 2.681E-06 alpha_mix =  0.700 |ddv_scf|^2 =  2.902E-12

      iter #   7 total cpu time :    31.0 secs   av.it.:   7.9
      thresh= 1.703E-07 alpha_mix =  0.700 |ddv_scf|^2 =  5.520E-13

     End of self-consistent calculation

     Convergence has been achieved 


     Representation #  2 mode #   2

     Self-consistent Calculation

      iter #   1 total cpu time :    31.5 secs   av.it.:   4.9
      thresh= 1.000E-02 alpha_mix =  0.700 |ddv_scf|^2 =  5.512E-06

      iter #   2 total cpu time :    31.7 secs   av.it.:   8.7
      thresh= 2.348E-04 alpha_mix =  0.700 |ddv_scf|^2 =  1.346E-06

      iter #   3 total cpu time :    31.9 secs   av.it.:   8.5
      thresh= 1.160E-04 alpha_mix =  0.700 |ddv_scf|^2 =  4.318E-08

      iter #   4 total cpu time :    32.1 secs   av.it.:   8.2
      thresh= 2.078E-05 alpha_mix =  0.700 |ddv_scf|^2 =  7.263E-10

      iter #   5 total cpu time :    32.4 secs   av.it.:   8.6
      thresh= 2.695E-06 alpha_mix =  0.700 |ddv_scf|^2 =  6.918E-12

      iter #   6 total cpu time :    32.6 secs   av.it.:   8.0
      thresh= 2.630E-07 alpha_mix =  0.700 |ddv_scf|^2 =  7.441E-14

     End of self-consistent calculation

     Convergence has been achieved 


     Representation #  3 modes #   3  4

     Self-consistent Calculation

      iter #   1 total cpu time :    32.9 secs   av.it.:   5.0
      thresh= 1.000E-02 alpha_mix =  0.700 |ddv_scf|^2 =  1.023E-06

      iter #   2 total cpu time :    33.8 secs   av.it.:   9.7
      thresh= 1.011E-04 alpha_mix =  0.700 |ddv_scf|^2 =  1.269E-07

      iter #   3 total cpu time :    34.2 secs   av.it.:   9.5
      thresh= 3.563E-05 alpha_mix =  0.700 |ddv_scf|^2 =  6.750E-09

      iter #   4 total cpu time :    34.7 secs   av.it.:   8.8
      thresh= 8.216E-06 alpha_mix =  0.700 |ddv_scf|^2 =  9.592E-12

      iter #   5 total cpu time :    35.5 secs   av.it.:   9.2
      thresh= 3.097E-07 alpha_mix =  0.700 |ddv_scf|^2 =  3.013E-13

     End of self-consistent calculation

     Convergence has been achieved 


     Representation #  4 modes #   5  6

     Self-consistent Calculation

      iter #   1 total cpu time :    35.9 secs   av.it.:   5.0
      thresh= 1.000E-02 alpha_mix =  0.700 |ddv_scf|^2 =  9.392E-07

      iter #   2 total cpu time :    36.3 secs   av.it.:   9.8
      thresh= 9.691E-05 alpha_mix =  0.700 |ddv_scf|^2 =  1.189E-07

      iter #   3 total cpu time :    36.8 secs   av.it.:   9.4
      thresh= 3.448E-05 alpha_mix =  0.700 |ddv_scf|^2 =  7.071E-09

      iter #   4 total cpu time :    37.6 secs   av.it.:   8.9
      thresh= 8.409E-06 alpha_mix =  0.700 |ddv_scf|^2 =  1.490E-11

      iter #   5 total cpu time :    38.0 secs   av.it.:   9.2
      thresh= 3.860E-07 alpha_mix =  0.700 |ddv_scf|^2 =  4.461E-14

     End of self-consistent calculation

     Convergence has been achieved 

     Number of q in the star =    6
     List of q in the star:
          1   0.000000000   0.500000000   0.000000000
          2   0.000000000  -0.500000000   0.000000000
          3   0.500000000   0.000000000   0.000000000
          4   0.000000000   0.000000000   0.500000000
          5   0.000000000   0.000000000  -0.500000000
          6  -0.500000000   0.000000000   0.000000000

     Diagonalizing the dynamical matrix

     q = (    0.000000000   0.500000000   0.000000000 ) 

 **************************************************************************
     freq (    1) =       4.301045 [THz] =     143.467431 [cm-1]
     freq (    2) =       4.301045 [THz] =     143.467431 [cm-1]
     freq (    3) =       7.128929 [THz] =     237.795485 [cm-1]
     freq (    4) =      13.996779 [THz] =     466.882288 [cm-1]
     freq (    5) =      13.996779 [THz] =     466.882288 [cm-1]
     freq (    6) =      14.635040 [THz] =     488.172392 [cm-1]
 **************************************************************************

     Mode symmetry, C_4v (4mm)  point group:

     freq (  1 -  2) =        143.5  [cm-1]   --> E    G_5 D_5       
     freq (  3 -  3) =        237.8  [cm-1]   --> A_1  G_1 D_1       
     freq (  4 -  5) =        466.9  [cm-1]   --> E    G_5 D_5       
     freq (  6 -  6) =        488.2  [cm-1]   --> B_2  G_4 D_2'      

     Calculation of q =    0.7500000  -0.2500000   0.7500000

   Info: using nr1, nr2, nr3 values from input

   Info: using nr1, nr2, nr3 values from input

     Parallelization info
     --------------------
     sticks:   dense  smooth     PW     G-vecs:    dense   smooth      PW
     Min          64      64     30                  709      709     216
     Max          67      67     31                  710      710     218
     Sum         265     265    121                 2837     2837     869



     bravais-lattice index     =            2
     lattice parameter (alat)  =      10.3510  a.u.
     unit-cell volume          =     277.2598 (a.u.)^3
     number of atoms/cell      =            2
     number of atomic types    =            1
     number of electrons       =         8.00
     number of Kohn-Sham states=            4
     kinetic-energy cutoff     =      18.0000  Ry
     charge density cutoff     =      72.0000  Ry
     Exchange-correlation      = SLA  PW   PBE  PBE ( 1  4  3  4 0 0)

     celldm(1)=  10.351000  celldm(2)=   0.000000  celldm(3)=   0.000000
     celldm(4)=   0.000000  celldm(5)=   0.000000  celldm(6)=   0.000000

     crystal axes: (cart. coord. in units of alat)
               a(1) = (  -0.500000   0.000000   0.500000 )  
               a(2) = (   0.000000   0.500000   0.500000 )  
               a(3) = (  -0.500000   0.500000   0.000000 )  

     reciprocal axes: (cart. coord. in units 2 pi/alat)
               b(1) = ( -1.000000 -1.000000  1.000000 )  
               b(2) = (  1.000000  1.000000  1.000000 )  
               b(3) = ( -1.000000  1.000000 -1.000000 )  


     PseudoPot. # 1 for Si read from file:
     /home/max/quantum_espresso/qe-6.1/pseudo/si_pbe_v1.uspp.F.UPF.txt
     MD5 check sum: a056efeee980c13900f22a371efd63c1
     Pseudo is Ultrasoft + core correction, Zval =  4.0
     Generated by new atomic code, or converted to UPF format
     Using radial grid of  899 points,  6 beta functions with: 
                l(1) =   0
                l(2) =   0
                l(3) =   1
                l(4) =   1
                l(5) =   2
                l(6) =   2
     Q(r) pseudized with  8 coefficients,  rinner =    0.900   0.900   0.900
                                                       0.900   0.900

     atomic species   valence    mass     pseudopotential
        Si             4.00    28.08600     Si( 1.00)

     48 Sym. Ops., with inversion, found



   Cartesian axes

     site n.     atom                  positions (alat units)
         1           Si  tau(   1) = (   0.0000000   0.0000000   0.0000000  )
         2           Si  tau(   2) = (   0.2500000   0.2500000   0.2500000  )

     number of k points=   288

     Number of k-points >= 100: set verbosity='high' to print them.

     Dense  grid:     2837 G-vectors     FFT dimensions: (  20,  20,  20)

     Estimated max dynamical RAM per process >       0.33MB

     Estimated total allocated dynamical RAM >       1.32MB

     Check: negative/imaginary core charge=   -0.000006    0.000000

     The potential is recalculated from file :
     ./_ph0/silicon.10.351.save/charge-density.dat

     Starting wfc are    8 atomic wfcs

     Band Structure Calculation
     Davidson diagonalization with overlap

     ethr =  1.25E-10,  avg # of iterations = 11.6

     total cpu time spent up to now is        5.4 secs

     End of band structure calculation

     Number of k-points >= 100: set verbosity='high' to print the bands.

     highest occupied level (ev):     5.6497

     Writing output data file silicon.10.351.save

                                                                                

     bravais-lattice index     =            2
     lattice parameter (alat)  =      10.3510  a.u.
     unit-cell volume          =     277.2598 (a.u.)^3
     number of atoms/cell      =            2
     number of atomic types    =            1
     kinetic-energy cut-off    =      18.0000  Ry
     charge density cut-off    =      72.0000  Ry
     convergence threshold     =      1.0E-12
     beta                      =       0.7000
     number of iterations used =            4
     Exchange-correlation      = SLA  PW   PBE  PBE ( 1  4  3  4 0 0)


     celldm(1)=   10.35100  celldm(2)=    0.00000  celldm(3)=    0.00000
     celldm(4)=    0.00000  celldm(5)=    0.00000  celldm(6)=    0.00000

     crystal axes: (cart. coord. in units of alat)
               a(1) = ( -0.5000  0.0000  0.5000 )  
               a(2) = (  0.0000  0.5000  0.5000 )  
               a(3) = ( -0.5000  0.5000  0.0000 )  

     reciprocal axes: (cart. coord. in units 2 pi/alat)
               b(1) = ( -1.0000 -1.0000  1.0000 )  
               b(2) = (  1.0000  1.0000  1.0000 )  
               b(3) = ( -1.0000  1.0000 -1.0000 )  


     Atoms inside the unit cell: 

     Cartesian axes

     site n.  atom      mass           positions (alat units)
        1     Si  28.0860   tau(    1) = (    0.00000    0.00000    0.00000  )
        2     Si  28.0860   tau(    2) = (    0.25000    0.25000    0.25000  )

     Computing dynamical matrix for 
                    q = (   0.7500000  -0.2500000   0.7500000 )

      2 Sym.Ops. (no q -> -q+G )


     G cutoff =  195.4058  (    710 G-vectors)     FFT grid: ( 20, 20, 20)
     number of k points=   288

     PseudoPot. # 1 for Si read from file:
     /home/max/quantum_espresso/qe-6.1/pseudo/si_pbe_v1.uspp.F.UPF.txt
     MD5 check sum: a056efeee980c13900f22a371efd63c1
     Pseudo is Ultrasoft + core correction, Zval =  4.0
     Generated by new atomic code, or converted to UPF format
     Using radial grid of  899 points,  6 beta functions with: 
                l(1) =   0
                l(2) =   0
                l(3) =   1
                l(4) =   1
                l(5) =   2
                l(6) =   2
     Q(r) pseudized with  8 coefficients,  rinner =    0.900   0.900   0.900
                                                       0.900   0.900

     Mode symmetry, C_s (m)     point group:


     Atomic displacements:
     There are   6 irreducible representations

     Representation     1      1 modes -A'  To be done

     Representation     2      1 modes -A'  To be done

     Representation     3      1 modes -A'  To be done

     Representation     4      1 modes -A'  To be done

     Representation     5      1 modes -A''  To be done

     Representation     6      1 modes -A''  To be done



     Alpha used in Ewald sum =   0.7000
     PHONON       :    37.09s CPU        41.70s WALL



     Representation #  1 mode #   1

     Self-consistent Calculation

      iter #   1 total cpu time :    42.3 secs   av.it.:   5.3
      thresh= 1.000E-02 alpha_mix =  0.700 |ddv_scf|^2 =  6.110E-05

      iter #   2 total cpu time :    43.4 secs   av.it.:   8.9
      thresh= 7.817E-04 alpha_mix =  0.700 |ddv_scf|^2 =  1.603E-04

      iter #   3 total cpu time :    44.1 secs   av.it.:   7.6
      thresh= 1.266E-03 alpha_mix =  0.700 |ddv_scf|^2 =  1.147E-06

      iter #   4 total cpu time :    44.9 secs   av.it.:   8.4
      thresh= 1.071E-04 alpha_mix =  0.700 |ddv_scf|^2 =  6.232E-08

      iter #   5 total cpu time :    46.0 secs   av.it.:   8.3
      thresh= 2.496E-05 alpha_mix =  0.700 |ddv_scf|^2 =  7.576E-09

      iter #   6 total cpu time :    46.7 secs   av.it.:   8.5
      thresh= 8.704E-06 alpha_mix =  0.700 |ddv_scf|^2 =  8.485E-11

      iter #   7 total cpu time :    47.9 secs   av.it.:   8.8
      thresh= 9.212E-07 alpha_mix =  0.700 |ddv_scf|^2 =  3.048E-12

      iter #   8 total cpu time :    48.6 secs   av.it.:   8.6
      thresh= 1.746E-07 alpha_mix =  0.700 |ddv_scf|^2 =  1.988E-13

     End of self-consistent calculation

     Convergence has been achieved 


     Representation #  2 mode #   2

     Self-consistent Calculation

      iter #   1 total cpu time :    49.6 secs   av.it.:   5.4
      thresh= 1.000E-02 alpha_mix =  0.700 |ddv_scf|^2 =  1.087E-04

      iter #   2 total cpu time :    50.4 secs   av.it.:   8.7
      thresh= 1.043E-03 alpha_mix =  0.700 |ddv_scf|^2 =  3.103E-04

      iter #   3 total cpu time :    51.4 secs   av.it.:   7.4
      thresh= 1.762E-03 alpha_mix =  0.700 |ddv_scf|^2 =  7.964E-07

      iter #   4 total cpu time :    52.2 secs   av.it.:   8.6
      thresh= 8.924E-05 alpha_mix =  0.700 |ddv_scf|^2 =  6.069E-08

      iter #   5 total cpu time :    53.1 secs   av.it.:   8.2
      thresh= 2.464E-05 alpha_mix =  0.700 |ddv_scf|^2 =  1.082E-08

      iter #   6 total cpu time :    54.1 secs   av.it.:   8.5
      thresh= 1.040E-05 alpha_mix =  0.700 |ddv_scf|^2 =  8.434E-11

      iter #   7 total cpu time :    54.9 secs   av.it.:   8.7
      thresh= 9.184E-07 alpha_mix =  0.700 |ddv_scf|^2 =  2.722E-12

      iter #   8 total cpu time :    56.0 secs   av.it.:   8.7
      thresh= 1.650E-07 alpha_mix =  0.700 |ddv_scf|^2 =  7.411E-13

     End of self-consistent calculation

     Convergence has been achieved 


     Representation #  3 mode #   3

     Self-consistent Calculation

      iter #   1 total cpu time :    56.6 secs   av.it.:   5.3
      thresh= 1.000E-02 alpha_mix =  0.700 |ddv_scf|^2 =  8.530E-05

      iter #   2 total cpu time :    57.8 secs   av.it.:   8.8
      thresh= 9.236E-04 alpha_mix =  0.700 |ddv_scf|^2 =  2.276E-04

      iter #   3 total cpu time :    58.5 secs   av.it.:   7.4
      thresh= 1.509E-03 alpha_mix =  0.700 |ddv_scf|^2 =  1.355E-06

      iter #   4 total cpu time :    59.6 secs   av.it.:   8.2
      thresh= 1.164E-04 alpha_mix =  0.700 |ddv_scf|^2 =  6.234E-08

      iter #   5 total cpu time :    60.4 secs   av.it.:   8.4
      thresh= 2.497E-05 alpha_mix =  0.700 |ddv_scf|^2 =  1.114E-08

      iter #   6 total cpu time :    61.5 secs   av.it.:   8.5
      thresh= 1.056E-05 alpha_mix =  0.700 |ddv_scf|^2 =  4.818E-11

      iter #   7 total cpu time :    62.3 secs   av.it.:   8.7
      thresh= 6.941E-07 alpha_mix =  0.700 |ddv_scf|^2 =  1.756E-12

      iter #   8 total cpu time :    63.4 secs   av.it.:   8.8
      thresh= 1.325E-07 alpha_mix =  0.700 |ddv_scf|^2 =  3.264E-13

     End of self-consistent calculation

     Convergence has been achieved 


     Representation #  4 mode #   4

     Self-consistent Calculation

      iter #   1 total cpu time :    64.1 secs   av.it.:   5.2
      thresh= 1.000E-02 alpha_mix =  0.700 |ddv_scf|^2 =  3.770E-05

      iter #   2 total cpu time :    64.8 secs   av.it.:   8.9
[...]
        k(   59) = (  -0.8750000   0.1250000  -0.1250000), wk =   0.0625000
        k(   60) = (  -1.3750000  -0.8750000  -0.1250000), wk =   0.0000000
        k(   61) = (  -1.1250000   0.3750000  -0.3750000), wk =   0.0625000
        k(   62) = (  -1.6250000  -0.6250000  -0.3750000), wk =   0.0000000
        k(   63) = (  -0.3750000   0.3750000   1.1250000), wk =   0.0625000
        k(   64) = (  -0.8750000  -0.6250000   1.1250000), wk =   0.0000000

     Dense  grid:     2837 G-vectors     FFT dimensions: (  20,  20,  20)

     Estimated max dynamical RAM per process >       0.33MB

     Estimated total allocated dynamical RAM >       1.32MB

     Check: negative/imaginary core charge=   -0.000006    0.000000

     The potential is recalculated from file :
     ./_ph0/silicon.10.351.save/charge-density.dat

     Starting wfc are    8 atomic wfcs

     Band Structure Calculation
     Davidson diagonalization with overlap

     ethr =  1.25E-10,  avg # of iterations = 11.6

     total cpu time spent up to now is        8.5 secs

     End of band structure calculation

          k =-0.1250 0.1250 0.1250 (   344 PWs)   bands (ev):

    -5.6489   4.3405   5.6497   5.6497

          k =-0.6250-0.8750 0.1250 (   361 PWs)   bands (ev):

    -2.4737  -0.9390   1.9937   3.0591

          k =-0.3750 0.3750-0.1250 (   355 PWs)   bands (ev):

    -4.6296   1.3568   3.6774   5.1691

          k =-0.8750-0.6250-0.1250 (   361 PWs)   bands (ev):

    -2.4737  -0.9390   1.9937   3.0591

          k = 0.3750-0.3750 0.6250 (   361 PWs)   bands (ev):

    -3.5012  -0.7044   3.6936   4.4035

          k =-0.1250-1.3750 0.6250 (   363 PWs)   bands (ev):

    -3.0085  -0.6303   2.0484   4.0895

          k = 0.1250-0.1250 0.3750 (   353 PWs)   bands (ev):

    -5.1247   2.7248   4.6483   4.7090

          k =-0.3750-1.1250 0.3750 (   363 PWs)   bands (ev):

    -3.0085  -0.6303   2.0484   4.0895

          k =-0.1250 0.6250 0.1250 (   351 PWs)   bands (ev):

    -4.1002   1.0144   3.3332   3.7792

          k =-0.6250-0.3750 0.1250 (   360 PWs)   bands (ev):

    -3.6889   0.1515   2.6952   4.0535

          k = 0.6250-0.1250 0.8750 (   361 PWs)   bands (ev):

    -2.4737  -0.9390   1.9937   3.0591

          k = 0.1250-1.1250 0.8750 (   360 PWs)   bands (ev):

    -2.6382  -0.8430   2.5962   3.3147

          k = 0.3750 0.1250 0.6250 (   360 PWs)   bands (ev):

    -3.6889   0.1515   2.6952   4.0535

          k =-0.1250-0.8750 0.6250 (   361 PWs)   bands (ev):

    -2.4737  -0.9390   1.9937   3.0591

          k =-0.1250-0.8750 0.1250 (   360 PWs)   bands (ev):

    -2.6382  -0.8430   2.5962   3.3147

          k =-0.6250-1.8750 0.1250 (   351 PWs)   bands (ev):

    -4.1002   1.0144   3.3332   3.7792

          k =-0.3750 0.3750 0.3750 (   353 PWs)   bands (ev):

    -4.2011   0.0795   4.8644   4.8644

          k =-0.8750-0.6250 0.3750 (   360 PWs)   bands (ev):

    -3.6889   0.1515   2.6952   4.0535

          k = 0.3750-0.3750 1.1250 (   363 PWs)   bands (ev):

    -3.0085  -0.6303   2.0484   4.0895

          k =-0.1250-1.3750 1.1250 (   361 PWs)   bands (ev):

    -2.4737  -0.9390   1.9937   3.0591

          k = 0.1250-0.3750 0.3750 (   355 PWs)   bands (ev):

    -4.6296   1.3568   3.6774   5.1691

          k =-0.3750-1.3750 0.3750 (   361 PWs)   bands (ev):

    -3.5012  -0.7044   3.6936   4.4035

          k = 0.3750-0.3750-0.1250 (   355 PWs)   bands (ev):

    -4.6296   1.3568   3.6774   5.1691

          k =-0.1250-1.3750-0.1250 (   351 PWs)   bands (ev):

    -4.1002   1.0144   3.3332   3.7792

          k =-0.6250 0.3750-0.3750 (   361 PWs)   bands (ev):

    -3.5012  -0.7044   3.6936   4.4035

          k =-1.1250-0.6250-0.3750 (   360 PWs)   bands (ev):

    -3.6889   0.1515   2.6952   4.0535

          k =-0.3750 0.3750 0.6250 (   361 PWs)   bands (ev):

    -3.5012  -0.7044   3.6936   4.4035

          k =-0.8750-0.6250 0.6250 (   355 PWs)   bands (ev):

    -4.6296   1.3568   3.6774   5.1691

          k =-0.3750 0.1250-0.1250 (   353 PWs)   bands (ev):

    -5.1247   2.7248   4.6483   4.7090

          k =-0.8750-0.8750-0.1250 (   360 PWs)   bands (ev):

    -2.6382  -0.8430   2.5962   3.3147

          k =-0.1250 0.1250 0.3750 (   353 PWs)   bands (ev):

    -5.1247   2.7248   4.6483   4.7090

          k =-0.6250-0.8750 0.3750 (   360 PWs)   bands (ev):

    -3.6889   0.1515   2.6952   4.0535

          k = 0.1250 0.6250-0.1250 (   351 PWs)   bands (ev):

    -4.1002   1.0144   3.3332   3.7792

          k =-0.3750-0.3750-0.1250 (   355 PWs)   bands (ev):

    -4.6296   1.3568   3.6774   5.1691

          k = 0.6250 0.1250-0.1250 (   351 PWs)   bands (ev):

    -4.1002   1.0144   3.3332   3.7792

          k = 0.1250-0.8750-0.1250 (   360 PWs)   bands (ev):

    -2.6382  -0.8430   2.5962   3.3147

          k =-0.8750 0.1250-0.6250 (   361 PWs)   bands (ev):

    -2.4737  -0.9390   1.9937   3.0591

          k =-1.3750-0.8750-0.6250 (   355 PWs)   bands (ev):

    -4.6296   1.3568   3.6774   5.1691

          k = 0.8750-0.1250 0.6250 (   361 PWs)   bands (ev):

    -2.4737  -0.9390   1.9937   3.0591

          k = 0.3750-1.1250 0.6250 (   360 PWs)   bands (ev):

    -3.6889   0.1515   2.6952   4.0535

          k =-0.6250 0.1250 0.8750 (   361 PWs)   bands (ev):

    -2.4737  -0.9390   1.9937   3.0591

          k =-1.1250-0.8750 0.8750 (   344 PWs)   bands (ev):

    -5.6489   4.3405   5.6497   5.6497

          k =-0.1250 0.8750 0.6250 (   361 PWs)   bands (ev):

    -2.4737  -0.9390   1.9937   3.0591

          k =-0.6250-0.1250 0.6250 (   363 PWs)   bands (ev):

    -3.0085  -0.6303   2.0484   4.0895

          k = 0.1250 0.8750-0.6250 (   361 PWs)   bands (ev):

    -2.4737  -0.9390   1.9937   3.0591

          k =-0.3750-0.1250-0.6250 (   360 PWs)   bands (ev):

    -3.6889   0.1515   2.6952   4.0535

          k =-0.6250-0.1250-0.3750 (   360 PWs)   bands (ev):

    -3.6889   0.1515   2.6952   4.0535

          k =-1.1250-1.1250-0.3750 (   351 PWs)   bands (ev):

    -4.1002   1.0144   3.3332   3.7792

          k = 0.6250 0.1250 0.3750 (   360 PWs)   bands (ev):

    -3.6889   0.1515   2.6952   4.0535

          k = 0.1250-0.8750 0.3750 (   361 PWs)   bands (ev):

    -2.4737  -0.9390   1.9937   3.0591

          k =-0.3750-0.1250 0.6250 (   360 PWs)   bands (ev):

    -3.6889   0.1515   2.6952   4.0535

          k =-0.8750-1.1250 0.6250 (   353 PWs)   bands (ev):

    -5.1247   2.7248   4.6483   4.7090

          k = 0.1250 0.6250 0.3750 (   360 PWs)   bands (ev):

    -3.6889   0.1515   2.6952   4.0535

          k =-0.3750-0.3750 0.3750 (   353 PWs)   bands (ev):

    -4.2011   0.0795   4.8644   4.8644

          k =-0.1250 0.6250-0.3750 (   360 PWs)   bands (ev):

    -3.6889   0.1515   2.6952   4.0535

          k =-0.6250-0.3750-0.3750 (   361 PWs)   bands (ev):

    -3.5012  -0.7044   3.6936   4.4035

          k = 0.1250-0.8750-0.1250 (   360 PWs)   bands (ev):

    -2.6382  -0.8430   2.5962   3.3147

          k =-0.3750-1.8750-0.1250 (   353 PWs)   bands (ev):

    -5.1247   2.7248   4.6483   4.7090

          k =-0.8750 0.1250-0.1250 (   360 PWs)   bands (ev):

    -2.6382  -0.8430   2.5962   3.3147

          k =-1.3750-0.8750-0.1250 (   361 PWs)   bands (ev):

    -2.4737  -0.9390   1.9937   3.0591

          k =-1.1250 0.3750-0.3750 (   363 PWs)   bands (ev):

    -3.0085  -0.6303   2.0484   4.0895

          k =-1.6250-0.6250-0.3750 (   361 PWs)   bands (ev):

    -3.5012  -0.7044   3.6936   4.4035

          k =-0.3750 0.3750 1.1250 (   363 PWs)   bands (ev):

    -3.0085  -0.6303   2.0484   4.0895

          k =-0.8750-0.6250 1.1250 (   353 PWs)   bands (ev):

    -5.1247   2.7248   4.6483   4.7090

     highest occupied level (ev):     5.6497

     Writing output data file silicon.10.351.save

                                                                                

     bravais-lattice index     =            2
     lattice parameter (alat)  =      10.3510  a.u.
     unit-cell volume          =     277.2598 (a.u.)^3
     number of atoms/cell      =            2
     number of atomic types    =            1
     kinetic-energy cut-off    =      18.0000  Ry
     charge density cut-off    =      72.0000  Ry
     convergence threshold     =      1.0E-12
     beta                      =       0.7000
     number of iterations used =            4
     Exchange-correlation      = SLA  PW   PBE  PBE ( 1  4  3  4 0 0)


     celldm(1)=   10.35100  celldm(2)=    0.00000  celldm(3)=    0.00000
     celldm(4)=    0.00000  celldm(5)=    0.00000  celldm(6)=    0.00000

     crystal axes: (cart. coord. in units of alat)
               a(1) = ( -0.5000  0.0000  0.5000 )  
               a(2) = (  0.0000  0.5000  0.5000 )  
               a(3) = ( -0.5000  0.5000  0.0000 )  

     reciprocal axes: (cart. coord. in units 2 pi/alat)
               b(1) = ( -1.0000 -1.0000  1.0000 )  
               b(2) = (  1.0000  1.0000  1.0000 )  
               b(3) = ( -1.0000  1.0000 -1.0000 )  


     Atoms inside the unit cell: 

     Cartesian axes

     site n.  atom      mass           positions (alat units)
        1     Si  28.0860   tau(    1) = (    0.00000    0.00000    0.00000  )
        2     Si  28.0860   tau(    2) = (    0.25000    0.25000    0.25000  )

     Computing dynamical matrix for 
                    q = (  -0.5000000  -1.0000000   0.0000000 )

      8 Sym.Ops. (no q -> -q+G )


     G cutoff =  195.4058  (    710 G-vectors)     FFT grid: ( 20, 20, 20)
     number of k points=    64

     PseudoPot. # 1 for Si read from file:
     /home/max/quantum_espresso/qe-6.1/pseudo/si_pbe_v1.uspp.F.UPF.txt
     MD5 check sum: a056efeee980c13900f22a371efd63c1
     Pseudo is Ultrasoft + core correction, Zval =  4.0
     Generated by new atomic code, or converted to UPF format
     Using radial grid of  899 points,  6 beta functions with: 
                l(1) =   0
                l(2) =   0
                l(3) =   1
                l(4) =   1
                l(5) =   2
                l(6) =   2
     Q(r) pseudized with  8 coefficients,  rinner =    0.900   0.900   0.900
                                                       0.900   0.900


     Atomic displacements:
     There are   3 irreducible representations

     Representation     1      2 modes -  To be done

     Representation     2      2 modes -  To be done

     Representation     3      2 modes -  To be done



     Alpha used in Ewald sum =   0.7000
     PHONON       :  1m32.18s CPU     1m44.20s WALL



     Representation #  1 modes #   1  2

     Self-consistent Calculation

      iter #   1 total cpu time :   104.5 secs   av.it.:   5.3
      thresh= 1.000E-02 alpha_mix =  0.700 |ddv_scf|^2 =  6.350E-06

      iter #   2 total cpu time :   104.9 secs   av.it.:   9.9
      thresh= 2.520E-04 alpha_mix =  0.700 |ddv_scf|^2 =  3.424E-06

      iter #   3 total cpu time :   105.7 secs   av.it.:   9.3
      thresh= 1.850E-04 alpha_mix =  0.700 |ddv_scf|^2 =  9.111E-09

      iter #   4 total cpu time :   106.0 secs   av.it.:   9.0
      thresh= 9.545E-06 alpha_mix =  0.700 |ddv_scf|^2 =  1.961E-11

      iter #   5 total cpu time :   106.4 secs   av.it.:   9.2
      thresh= 4.428E-07 alpha_mix =  0.700 |ddv_scf|^2 =  5.742E-13

     End of self-consistent calculation

     Convergence has been achieved 


     Representation #  2 modes #   3  4

     Self-consistent Calculation

      iter #   1 total cpu time :   106.7 secs   av.it.:   5.2
      thresh= 1.000E-02 alpha_mix =  0.700 |ddv_scf|^2 =  9.793E-06

      iter #   2 total cpu time :   107.5 secs   av.it.:   9.9
      thresh= 3.129E-04 alpha_mix =  0.700 |ddv_scf|^2 =  1.310E-05

      iter #   3 total cpu time :   107.8 secs   av.it.:   9.1
      thresh= 3.619E-04 alpha_mix =  0.700 |ddv_scf|^2 =  1.062E-08

      iter #   4 total cpu time :   108.2 secs   av.it.:   8.8
      thresh= 1.030E-05 alpha_mix =  0.700 |ddv_scf|^2 =  8.636E-11

      iter #   5 total cpu time :   108.6 secs   av.it.:   9.4
      thresh= 9.293E-07 alpha_mix =  0.700 |ddv_scf|^2 =  1.823E-12

      iter #   6 total cpu time :   108.9 secs   av.it.:   9.1
      thresh= 1.350E-07 alpha_mix =  0.700 |ddv_scf|^2 =  1.493E-14

     End of self-consistent calculation

     Convergence has been achieved 


     Representation #  3 modes #   5  6

     Self-consistent Calculation

      iter #   1 total cpu time :   109.6 secs   av.it.:   5.1
      thresh= 1.000E-02 alpha_mix =  0.700 |ddv_scf|^2 =  2.663E-06

      iter #   2 total cpu time :   110.0 secs   av.it.:   9.7
      thresh= 1.632E-04 alpha_mix =  0.700 |ddv_scf|^2 =  1.446E-06

      iter #   3 total cpu time :   110.3 secs   av.it.:   9.0
      thresh= 1.203E-04 alpha_mix =  0.700 |ddv_scf|^2 =  8.821E-09

      iter #   4 total cpu time :   110.7 secs   av.it.:   8.7
      thresh= 9.392E-06 alpha_mix =  0.700 |ddv_scf|^2 =  4.396E-11

      iter #   5 total cpu time :   111.6 secs   av.it.:   9.1
      thresh= 6.630E-07 alpha_mix =  0.700 |ddv_scf|^2 =  6.909E-13

     End of self-consistent calculation

     Convergence has been achieved 

     Number of q in the star =    6
     List of q in the star:
          1  -0.500000000  -1.000000000   0.000000000
          2   0.000000000   1.000000000   0.500000000
          3   0.000000000  -1.000000000  -0.500000000
          4   0.500000000   1.000000000   0.000000000
          5  -1.000000000  -0.500000000   0.000000000
          6   0.000000000  -0.500000000  -1.000000000

     Diagonalizing the dynamical matrix

     q = (   -0.500000000  -1.000000000   0.000000000 ) 

 **************************************************************************
     freq (    1) =       7.350297 [THz] =     245.179525 [cm-1]
     freq (    2) =       7.350297 [THz] =     245.179525 [cm-1]
     freq (    3) =      10.927681 [THz] =     364.508194 [cm-1]
     freq (    4) =      10.927681 [THz] =     364.508194 [cm-1]
     freq (    5) =      13.827653 [THz] =     461.240851 [cm-1]
     freq (    6) =      13.827653 [THz] =     461.240851 [cm-1]
 **************************************************************************

     init_run     :      0.88s CPU      1.09s WALL (       7 calls)
     electrons    :      5.82s CPU      6.65s WALL (       7 calls)

     Called by init_run:
     wfcinit      :      0.00s CPU      0.00s WALL (       7 calls)
     potinit      :      0.17s CPU      0.17s WALL (       7 calls)

     Called by electrons:
     c_bands      :      5.82s CPU      6.64s WALL (       7 calls)
     v_of_rho     :      0.01s CPU      0.01s WALL (       8 calls)
     newd         :      0.03s CPU      0.04s WALL (       8 calls)

     Called by c_bands:
     init_us_2    :      0.69s CPU      0.78s WALL (   17588 calls)
     cegterg      :      4.80s CPU      5.45s WALL (     796 calls)

     Called by sum_band:

     Called by *egterg:
     h_psi        :     53.61s CPU     60.40s WALL (  152155 calls)
     s_psi        :      5.87s CPU      6.47s WALL (  309030 calls)
     g_psi        :      0.03s CPU      0.03s WALL (    9268 calls)
     cdiaghg      :      0.54s CPU      0.61s WALL (   10064 calls)

     Called by h_psi:
     h_psi:pot    :     53.42s CPU     60.16s WALL (  152155 calls)
     h_psi:calbec :      6.18s CPU      7.11s WALL (  152155 calls)
     vloc_psi     :     44.07s CPU     49.54s WALL (  152155 calls)
     add_vuspsi   :      2.94s CPU      3.28s WALL (  152155 calls)

     General routines
     calbec       :     13.14s CPU     15.02s WALL (  345402 calls)
     fft          :      0.82s CPU      0.89s WALL (    5239 calls)
     ffts         :      0.17s CPU      0.21s WALL (    2748 calls)
     fftw         :     51.94s CPU     58.46s WALL ( 1378102 calls)
     davcio       :      0.32s CPU      0.42s WALL (   79045 calls)

     Parallel routines
     fft_scatter  :     19.99s CPU     23.09s WALL ( 1386089 calls)

     PHONON       :  1m38.73s CPU     1m51.63s WALL

     INITIALIZATION: 
     phq_setup    :      0.06s CPU      0.06s WALL (       8 calls)
     phq_init     :      2.75s CPU      3.06s WALL (       8 calls)

     phq_init     :      2.75s CPU      3.06s WALL (       8 calls)
     set_drhoc    :      0.29s CPU      0.30s WALL (      24 calls)
     init_vloc    :      0.01s CPU      0.01s WALL (       8 calls)
     init_us_1    :      0.55s CPU      0.69s WALL (       8 calls)
     newd         :      0.03s CPU      0.04s WALL (       8 calls)
     dvanqq       :      0.25s CPU      0.29s WALL (       8 calls)
     drho         :      1.69s CPU      1.93s WALL (       8 calls)

     DYNAMICAL MATRIX:
     dynmat0      :      0.55s CPU      0.56s WALL (       8 calls)
     phqscf       :     86.27s CPU     97.68s WALL (       8 calls)
     dynmatrix    :      0.01s CPU      0.02s WALL (       8 calls)

     phqscf       :     86.27s CPU     97.68s WALL (       8 calls)
     solve_linter :     85.43s CPU     96.76s WALL (      32 calls)
     drhodv       :      0.61s CPU      0.68s WALL (      32 calls)

     dynmat0      :      0.55s CPU      0.56s WALL (       8 calls)
     dynmat_us    :      0.30s CPU      0.31s WALL (       8 calls)
     d2ionq       :      0.01s CPU      0.01s WALL (       8 calls)
     dynmatcc     :      0.22s CPU      0.23s WALL (       8 calls)

     dynmat_us    :      0.30s CPU      0.31s WALL (       8 calls)
     addusdynmat  :      0.00s CPU      0.00s WALL (       8 calls)

     phqscf       :     86.27s CPU     97.68s WALL (       8 calls)
     solve_linter :     85.43s CPU     96.76s WALL (      32 calls)

     solve_linter :     85.43s CPU     96.76s WALL (      32 calls)
     dvqpsi_us    :      1.84s CPU      2.16s WALL (    2508 calls)
     ortho        :      1.63s CPU      1.93s WALL (   15550 calls)
     cgsolve      :     67.49s CPU     76.35s WALL (   15550 calls)
     incdrhoscf   :      5.83s CPU      6.59s WALL (   15550 calls)
     addusddens   :      1.29s CPU      1.39s WALL (     228 calls)
     vpsifft      :      4.30s CPU      4.80s WALL (   12922 calls)
     dv_of_drho   :      0.26s CPU      0.27s WALL (     295 calls)
     mix_pot      :      0.08s CPU      0.08s WALL (     201 calls)
     psymdvscf    :      0.81s CPU      0.84s WALL (     196 calls)
     newdq        :      1.39s CPU      1.55s WALL (     201 calls)
     adddvscf     :      0.47s CPU      0.51s WALL (   13042 calls)
     drhodvus     :      0.01s CPU      0.01s WALL (      32 calls)

     dvqpsi_us    :      1.84s CPU      2.16s WALL (    2508 calls)
     dvqpsi_us_on :      0.84s CPU      0.95s WALL (    2508 calls)

     cgsolve      :     67.49s CPU     76.35s WALL (   15550 calls)
     ch_psi       :     63.71s CPU     71.74s WALL (  141295 calls)

     ch_psi       :     63.71s CPU     71.74s WALL (  141295 calls)
     h_psi        :     53.61s CPU     60.40s WALL (  152155 calls)
     last         :     11.07s CPU     12.59s WALL (  141295 calls)

     h_psi        :     53.61s CPU     60.40s WALL (  152155 calls)
     add_vuspsi   :      2.94s CPU      3.28s WALL (  152155 calls)

     incdrhoscf   :      5.83s CPU      6.59s WALL (   15550 calls)
     addusdbec    :      1.01s CPU      1.14s WALL (   17998 calls)

     drhodvus     :      0.01s CPU      0.01s WALL (      32 calls)

      General routines
     calbec       :     13.14s CPU     15.02s WALL (  345402 calls)
     fft          :      0.82s CPU      0.89s WALL (    5239 calls)
     ffts         :      0.17s CPU      0.21s WALL (    2748 calls)
     fftw         :     51.94s CPU     58.46s WALL ( 1378102 calls)
     davcio       :      0.32s CPU      0.42s WALL (   79045 calls)
     write_rec    :      0.25s CPU      0.33s WALL (     233 calls)


     PHONON       :  1m38.73s CPU     1m51.63s WALL


   This run was terminated on:  12:58:34   9Nov2017            

=------------------------------------------------------------------------------=
   JOB DONE.
=------------------------------------------------------------------------------=
