
     Program PHONON v.6.1 (svn rev. 13369) starts on 10Nov2017 at 15:42:13 

     This program is part of the open-source Quantum ESPRESSO suite
     for quantum simulation of materials; please cite
         "P. Giannozzi et al., J. Phys.:Condens. Matter 21 395502 (2009);
          URL http://www.quantum-espresso.org", 
     in publications or presentations arising from this work. More details at
     http://www.quantum-espresso.org/quote

     Parallel version (MPI), running on     4 processors
     R & G space division:  proc/nbgrp/npool/nimage =       4

     Reading data from directory:
     ./silicon.10.288.save

   Info: using nr1, nr2, nr3 values from input

   Info: using nr1, nr2, nr3 values from input

     IMPORTANT: XC functional enforced from input :
     Exchange-correlation      = SLA  PW   PBE  PBE ( 1  4  3  4 0 0)
     Any further DFT definition will be discarded
     Please, verify this is what you really want


     Parallelization info
     --------------------
     sticks:   dense  smooth     PW     G-vecs:    dense   smooth      PW
     Min         217     108     37                 4240     1495     284
     Max         219     109     38                 4241     1498     285
     Sum         871     433    151                16961     5985    1139



     Dynamical matrices for ( 4, 4, 4)  uniform grid of q-points
     (   8q-points):
       N         xq(1)         xq(2)         xq(3) 
       1   0.000000000   0.000000000   0.000000000
       2  -0.250000000   0.250000000  -0.250000000
       3   0.500000000  -0.500000000   0.500000000
       4   0.000000000   0.500000000   0.000000000
       5   0.750000000  -0.250000000   0.750000000
       6   0.500000000   0.000000000   0.500000000
       7   0.000000000  -1.000000000   0.000000000
       8  -0.500000000  -1.000000000   0.000000000

     Calculation of q =    0.0000000   0.0000000   0.0000000

                                                                                

     bravais-lattice index     =            2
     lattice parameter (alat)  =      10.2880  a.u.
     unit-cell volume          =     272.2281 (a.u.)^3
     number of atoms/cell      =            2
     number of atomic types    =            1
     kinetic-energy cut-off    =      30.0000  Ry
     charge density cut-off    =     240.0000  Ry
     convergence threshold     =      1.0E-12
     beta                      =       0.7000
     number of iterations used =            4
     Exchange-correlation      = SLA  PW   PBE  PBE ( 1  4  3  4 0 0)


     celldm(1)=   10.28800  celldm(2)=    0.00000  celldm(3)=    0.00000
     celldm(4)=    0.00000  celldm(5)=    0.00000  celldm(6)=    0.00000

     crystal axes: (cart. coord. in units of alat)
               a(1) = ( -0.5000  0.0000  0.5000 )  
               a(2) = (  0.0000  0.5000  0.5000 )  
               a(3) = ( -0.5000  0.5000  0.0000 )  

     reciprocal axes: (cart. coord. in units 2 pi/alat)
               b(1) = ( -1.0000 -1.0000  1.0000 )  
               b(2) = (  1.0000  1.0000  1.0000 )  
               b(3) = ( -1.0000  1.0000 -1.0000 )  


     Atoms inside the unit cell: 

     Cartesian axes

     site n.  atom      mass           positions (alat units)
        1     Si  28.0860   tau(    1) = (    0.00000    0.00000    0.00000  )
        2     Si  28.0860   tau(    2) = (    0.25000    0.25000    0.25000  )

     Computing dynamical matrix for 
                    q = (   0.0000000   0.0000000   0.0000000 )

     49 Sym.Ops. (with q -> -q+G )


     G cutoff =  643.4479  (   4241 G-vectors)     FFT grid: ( 36, 36, 36)
     G cutoff =  321.7240  (   1497 G-vectors)  smooth grid: ( 25, 25, 25)
     number of k points=    10

     PseudoPot. # 1 for Si read from file:
     /home/s1333534/quantum_espresso/qe-6.1/pseudo/si_pbe_v1.uspp.F.UPF.txt
     MD5 check sum: a056efeee980c13900f22a371efd63c1
     Pseudo is Ultrasoft + core correction, Zval =  4.0
     Generated by new atomic code, or converted to UPF format
     Using radial grid of  899 points,  6 beta functions with: 
                l(1) =   0
                l(2) =   0
                l(3) =   1
                l(4) =   1
                l(5) =   2
                l(6) =   2
     Q(r) pseudized with  8 coefficients,  rinner =    0.900   0.900   0.900
                                                       0.900   0.900

     Mode symmetry, O_h (m-3m)  point group:


     Electric field:
     Dielectric constant
     Born effective charges in two ways 


     Atomic displacements:
     There are   2 irreducible representations

     Representation     1      3 modes -T_2g G_25' G_5+  To be done

     Representation     2      3 modes -T_1u G_15  G_4-  To be done



     Alpha used in Ewald sum =   2.5000
     PHONON       :     0.94s CPU         1.36s WALL


     Electric Fields Calculation

      iter #   1 total cpu time :     2.4 secs   av.it.:   5.7
      thresh= 1.000E-02 alpha_mix =  0.700 |ddv_scf|^2 =  1.338E-07

      iter #   2 total cpu time :     3.2 secs   av.it.:  11.7
      thresh= 3.658E-05 alpha_mix =  0.700 |ddv_scf|^2 =  7.739E-09

      iter #   3 total cpu time :     3.9 secs   av.it.:  11.4
      thresh= 8.797E-06 alpha_mix =  0.700 |ddv_scf|^2 =  5.085E-10

      iter #   4 total cpu time :     4.7 secs   av.it.:  10.3
      thresh= 2.255E-06 alpha_mix =  0.700 |ddv_scf|^2 =  3.262E-12

      iter #   5 total cpu time :     5.2 secs   av.it.:  11.1
      thresh= 1.806E-07 alpha_mix =  0.700 |ddv_scf|^2 =  3.246E-15

     End of electric fields calculation

          Dielectric constant in cartesian axis 

          (      13.880201934      -0.000000000       0.000000000 )
          (      -0.000000000      13.880201934      -0.000000000 )
          (      -0.000000000      -0.000000000      13.880201934 )

          Effective charges (d Force / dE) in cartesian axis

           atom      1   Si 
      Ex  (       -0.03937        0.00000        0.00000 )
      Ey  (        0.00000       -0.03937       -0.00000 )
      Ez  (        0.00000        0.00000       -0.03937 )
           atom      2   Si 
      Ex  (       -0.03937        0.00000       -0.00000 )
      Ey  (        0.00000       -0.03937       -0.00000 )
      Ez  (       -0.00000        0.00000       -0.03937 )


     Representation #  1 modes #   1  2  3

     Self-consistent Calculation

      iter #   1 total cpu time :     6.4 secs   av.it.:   5.1
      thresh= 1.000E-02 alpha_mix =  0.700 |ddv_scf|^2 =  2.356E-08

      iter #   2 total cpu time :     7.1 secs   av.it.:  11.6
      thresh= 1.535E-05 alpha_mix =  0.700 |ddv_scf|^2 =  9.671E-10

      iter #   3 total cpu time :     7.8 secs   av.it.:  11.1
      thresh= 3.110E-06 alpha_mix =  0.700 |ddv_scf|^2 =  6.578E-11

      iter #   4 total cpu time :     8.4 secs   av.it.:  10.1
      thresh= 8.110E-07 alpha_mix =  0.700 |ddv_scf|^2 =  1.601E-13

     End of self-consistent calculation

     Convergence has been achieved 


     Representation #  2 modes #   4  5  6

     Self-consistent Calculation

      iter #   1 total cpu time :     9.2 secs   av.it.:   5.2
      thresh= 1.000E-02 alpha_mix =  0.700 |ddv_scf|^2 =  1.860E-08

      iter #   2 total cpu time :     9.9 secs   av.it.:  11.6
      thresh= 1.364E-05 alpha_mix =  0.700 |ddv_scf|^2 =  1.098E-09

      iter #   3 total cpu time :    10.7 secs   av.it.:  11.1
      thresh= 3.314E-06 alpha_mix =  0.700 |ddv_scf|^2 =  6.791E-11

      iter #   4 total cpu time :    11.2 secs   av.it.:  11.3
      thresh= 8.241E-07 alpha_mix =  0.700 |ddv_scf|^2 =  2.617E-13

     End of self-consistent calculation

     Convergence has been achieved 

     Number of q in the star =    1
     List of q in the star:
          1   0.000000000   0.000000000   0.000000000

          Dielectric constant in cartesian axis 

          (      13.880201934      -0.000000000       0.000000000 )
          (      -0.000000000      13.880201934      -0.000000000 )
          (      -0.000000000      -0.000000000      13.880201934 )

          Effective charges (d Force / dE) in cartesian axis

           atom      1   Si 
      Ex  (       -0.03937        0.00000        0.00000 )
      Ey  (        0.00000       -0.03937       -0.00000 )
      Ez  (        0.00000        0.00000       -0.03937 )
           atom      2   Si 
      Ex  (       -0.03937        0.00000       -0.00000 )
      Ey  (        0.00000       -0.03937       -0.00000 )
      Ez  (       -0.00000        0.00000       -0.03937 )

          Effective charges (d P / du) in cartesian axis 

           atom      1   Si 
      Px  (       -0.07199       -0.00000       -0.00000 )
      Py  (       -0.00000       -0.07199       -0.00000 )
      Pz  (       -0.00000        0.00000       -0.07199 )
           atom      2   Si 
      Px  (       -0.07199        0.00000        0.00000 )
      Py  (        0.00000       -0.07199       -0.00000 )
      Pz  (        0.00000       -0.00000       -0.07199 )

     Diagonalizing the dynamical matrix

     q = (    0.000000000   0.000000000   0.000000000 ) 

 **************************************************************************
     freq (    1) =      -0.472642 [THz] =     -15.765644 [cm-1]
     freq (    2) =      -0.472642 [THz] =     -15.765644 [cm-1]
     freq (    3) =      -0.472642 [THz] =     -15.765644 [cm-1]
     freq (    4) =      15.265314 [THz] =     509.196061 [cm-1]
     freq (    5) =      15.265314 [THz] =     509.196061 [cm-1]
     freq (    6) =      15.265314 [THz] =     509.196061 [cm-1]
 **************************************************************************

     Mode symmetry, O_h (m-3m)  point group:

     freq (  1 -  3) =        -15.8  [cm-1]   --> T_1u G_15  G_4- I  
     freq (  4 -  6) =        509.2  [cm-1]   --> T_2g G_25' G_5+ R  

     Calculation of q =   -0.2500000   0.2500000  -0.2500000

   Info: using nr1, nr2, nr3 values from input

   Info: using nr1, nr2, nr3 values from input

     Parallelization info
     --------------------
     sticks:   dense  smooth     PW     G-vecs:    dense   smooth      PW
     Min         217     108     37                 4240     1495     309
     Max         219     109     38                 4241     1498     312
     Sum         871     433    151                16961     5985    1243



     bravais-lattice index     =            2
     lattice parameter (alat)  =      10.2880  a.u.
     unit-cell volume          =     272.2281 (a.u.)^3
     number of atoms/cell      =            2
     number of atomic types    =            1
     number of electrons       =         8.00
     number of Kohn-Sham states=            4
     kinetic-energy cutoff     =      30.0000  Ry
     charge density cutoff     =     240.0000  Ry
     Exchange-correlation      = SLA  PW   PBE  PBE ( 1  4  3  4 0 0)

     celldm(1)=  10.288000  celldm(2)=   0.000000  celldm(3)=   0.000000
     celldm(4)=   0.000000  celldm(5)=   0.000000  celldm(6)=   0.000000

     crystal axes: (cart. coord. in units of alat)
               a(1) = (  -0.500000   0.000000   0.500000 )  
               a(2) = (   0.000000   0.500000   0.500000 )  
               a(3) = (  -0.500000   0.500000   0.000000 )  

     reciprocal axes: (cart. coord. in units 2 pi/alat)
               b(1) = ( -1.000000 -1.000000  1.000000 )  
               b(2) = (  1.000000  1.000000  1.000000 )  
               b(3) = ( -1.000000  1.000000 -1.000000 )  


     PseudoPot. # 1 for Si read from file:
     /home/s1333534/quantum_espresso/qe-6.1/pseudo/si_pbe_v1.uspp.F.UPF.txt
     MD5 check sum: a056efeee980c13900f22a371efd63c1
     Pseudo is Ultrasoft + core correction, Zval =  4.0
     Generated by new atomic code, or converted to UPF format
     Using radial grid of  899 points,  6 beta functions with: 
                l(1) =   0
                l(2) =   0
                l(3) =   1
                l(4) =   1
                l(5) =   2
                l(6) =   2
     Q(r) pseudized with  8 coefficients,  rinner =    0.900   0.900   0.900
                                                       0.900   0.900

     atomic species   valence    mass     pseudopotential
        Si             4.00    28.08600     Si( 1.00)

     48 Sym. Ops., with inversion, found



   Cartesian axes

     site n.     atom                  positions (alat units)
         1           Si  tau(   1) = (   0.0000000   0.0000000   0.0000000  )
         2           Si  tau(   2) = (   0.2500000   0.2500000   0.2500000  )

     number of k points=   120

     Number of k-points >= 100: set verbosity='high' to print them.

     Dense  grid:    16961 G-vectors     FFT dimensions: (  36,  36,  36)

     Smooth grid:     5985 G-vectors     FFT dimensions: (  25,  25,  25)

     Estimated max dynamical RAM per process >       1.51MB

     Estimated total allocated dynamical RAM >       6.02MB

     The potential is recalculated from file :
     ./_ph0/silicon.10.288.save/charge-density.dat

     Starting wfc are    8 atomic wfcs

     Band Structure Calculation
     Davidson diagonalization with overlap

     ethr =  1.25E-10,  avg # of iterations = 12.2

     total cpu time spent up to now is        1.4 secs

     End of band structure calculation

     Number of k-points >= 100: set verbosity='high' to print the bands.

     highest occupied level (ev):     5.8290

     Writing output data file silicon.10.288.save

                                                                                

     bravais-lattice index     =            2
     lattice parameter (alat)  =      10.2880  a.u.
     unit-cell volume          =     272.2281 (a.u.)^3
     number of atoms/cell      =            2
     number of atomic types    =            1
     kinetic-energy cut-off    =      30.0000  Ry
     charge density cut-off    =     240.0000  Ry
     convergence threshold     =      1.0E-12
     beta                      =       0.7000
     number of iterations used =            4
     Exchange-correlation      = SLA  PW   PBE  PBE ( 1  4  3  4 0 0)


     celldm(1)=   10.28800  celldm(2)=    0.00000  celldm(3)=    0.00000
     celldm(4)=    0.00000  celldm(5)=    0.00000  celldm(6)=    0.00000

     crystal axes: (cart. coord. in units of alat)
               a(1) = ( -0.5000  0.0000  0.5000 )  
               a(2) = (  0.0000  0.5000  0.5000 )  
               a(3) = ( -0.5000  0.5000  0.0000 )  

     reciprocal axes: (cart. coord. in units 2 pi/alat)
               b(1) = ( -1.0000 -1.0000  1.0000 )  
               b(2) = (  1.0000  1.0000  1.0000 )  
               b(3) = ( -1.0000  1.0000 -1.0000 )  


     Atoms inside the unit cell: 

     Cartesian axes

     site n.  atom      mass           positions (alat units)
        1     Si  28.0860   tau(    1) = (    0.00000    0.00000    0.00000  )
        2     Si  28.0860   tau(    2) = (    0.25000    0.25000    0.25000  )

     Computing dynamical matrix for 
                    q = (  -0.2500000   0.2500000  -0.2500000 )

      6 Sym.Ops. (no q -> -q+G )


     G cutoff =  643.4479  (   4241 G-vectors)     FFT grid: ( 36, 36, 36)
     G cutoff =  321.7240  (   1496 G-vectors)  smooth grid: ( 25, 25, 25)
     number of k points=   120

     PseudoPot. # 1 for Si read from file:
     /home/s1333534/quantum_espresso/qe-6.1/pseudo/si_pbe_v1.uspp.F.UPF.txt
     MD5 check sum: a056efeee980c13900f22a371efd63c1
     Pseudo is Ultrasoft + core correction, Zval =  4.0
     Generated by new atomic code, or converted to UPF format
     Using radial grid of  899 points,  6 beta functions with: 
                l(1) =   0
                l(2) =   0
                l(3) =   1
                l(4) =   1
                l(5) =   2
                l(6) =   2
     Q(r) pseudized with  8 coefficients,  rinner =    0.900   0.900   0.900
                                                       0.900   0.900

     Mode symmetry, C_3v (3m)   point group:


     Atomic displacements:
     There are   4 irreducible representations

     Representation     1      1 modes -A_1  L_1  To be done

     Representation     2      1 modes -A_1  L_1  To be done

     Representation     3      2 modes -E    L_3  To be done

     Representation     4      2 modes -E    L_3  To be done



     Alpha used in Ewald sum =   2.5000
     PHONON       :    10.62s CPU        14.56s WALL



     Representation #  1 mode #   1

     Self-consistent Calculation

      iter #   1 total cpu time :    15.0 secs   av.it.:   5.9
      thresh= 1.000E-02 alpha_mix =  0.700 |ddv_scf|^2 =  4.318E-04

      iter #   2 total cpu time :    15.6 secs   av.it.:   9.0
      thresh= 2.078E-03 alpha_mix =  0.700 |ddv_scf|^2 =  6.550E-03

      iter #   3 total cpu time :    16.1 secs   av.it.:   6.9
      thresh= 8.093E-03 alpha_mix =  0.700 |ddv_scf|^2 =  2.715E-07

      iter #   4 total cpu time :    16.7 secs   av.it.:   9.6
      thresh= 5.210E-05 alpha_mix =  0.700 |ddv_scf|^2 =  1.762E-08

      iter #   5 total cpu time :    17.3 secs   av.it.:   9.5
      thresh= 1.327E-05 alpha_mix =  0.700 |ddv_scf|^2 =  3.315E-10

      iter #   6 total cpu time :    17.9 secs   av.it.:   9.7
      thresh= 1.821E-06 alpha_mix =  0.700 |ddv_scf|^2 =  9.541E-10

      iter #   7 total cpu time :    18.5 secs   av.it.:   7.6
      thresh= 3.089E-06 alpha_mix =  0.700 |ddv_scf|^2 =  3.968E-11

      iter #   8 total cpu time :    19.0 secs   av.it.:   9.2
      thresh= 6.299E-07 alpha_mix =  0.700 |ddv_scf|^2 =  5.105E-13

     End of self-consistent calculation

     Convergence has been achieved 


     Representation #  2 mode #   2

     Self-consistent Calculation

      iter #   1 total cpu time :    19.6 secs   av.it.:   5.9
      thresh= 1.000E-02 alpha_mix =  0.700 |ddv_scf|^2 =  4.318E-04

      iter #   2 total cpu time :    20.2 secs   av.it.:   9.0
      thresh= 2.078E-03 alpha_mix =  0.700 |ddv_scf|^2 =  6.550E-03

      iter #   3 total cpu time :    20.7 secs   av.it.:   6.9
      thresh= 8.093E-03 alpha_mix =  0.700 |ddv_scf|^2 =  2.715E-07

      iter #   4 total cpu time :    21.3 secs   av.it.:   9.6
      thresh= 5.210E-05 alpha_mix =  0.700 |ddv_scf|^2 =  1.762E-08

      iter #   5 total cpu time :    21.9 secs   av.it.:   9.5
      thresh= 1.327E-05 alpha_mix =  0.700 |ddv_scf|^2 =  3.315E-10

      iter #   6 total cpu time :    22.5 secs   av.it.:   9.7
      thresh= 1.821E-06 alpha_mix =  0.700 |ddv_scf|^2 =  9.541E-10

      iter #   7 total cpu time :    23.1 secs   av.it.:   7.6
      thresh= 3.089E-06 alpha_mix =  0.700 |ddv_scf|^2 =  3.968E-11

      iter #   8 total cpu time :    23.6 secs   av.it.:   9.2
      thresh= 6.299E-07 alpha_mix =  0.700 |ddv_scf|^2 =  5.105E-13

     End of self-consistent calculation

     Convergence has been achieved 


     Representation #  3 modes #   3  4

     Self-consistent Calculation

      iter #   1 total cpu time :    24.5 secs   av.it.:   5.2
      thresh= 1.000E-02 alpha_mix =  0.700 |ddv_scf|^2 =  6.641E-08

      iter #   2 total cpu time :    25.7 secs   av.it.:  11.4
      thresh= 2.577E-05 alpha_mix =  0.700 |ddv_scf|^2 =  4.269E-09

      iter #   3 total cpu time :    27.0 secs   av.it.:  11.1
      thresh= 6.534E-06 alpha_mix =  0.700 |ddv_scf|^2 =  2.262E-10

      iter #   4 total cpu time :    28.1 secs   av.it.:  11.0
      thresh= 1.504E-06 alpha_mix =  0.700 |ddv_scf|^2 =  8.523E-13

     End of self-consistent calculation

     Convergence has been achieved 


     Representation #  4 modes #   5  6

     Self-consistent Calculation

      iter #   1 total cpu time :    29.2 secs   av.it.:   5.3
      thresh= 1.000E-02 alpha_mix =  0.700 |ddv_scf|^2 =  6.641E-08

      iter #   2 total cpu time :    30.4 secs   av.it.:  11.4
      thresh= 2.577E-05 alpha_mix =  0.700 |ddv_scf|^2 =  4.268E-09

      iter #   3 total cpu time :    31.7 secs   av.it.:  11.2
      thresh= 6.533E-06 alpha_mix =  0.700 |ddv_scf|^2 =  2.261E-10

      iter #   4 total cpu time :    32.9 secs   av.it.:  11.0
      thresh= 1.504E-06 alpha_mix =  0.700 |ddv_scf|^2 =  8.558E-13

     End of self-consistent calculation

     Convergence has been achieved 

     Number of q in the star =    8
     List of q in the star:
          1  -0.250000000   0.250000000  -0.250000000
          2   0.250000000  -0.250000000  -0.250000000
          3   0.250000000  -0.250000000   0.250000000
          4   0.250000000   0.250000000   0.250000000
          5  -0.250000000  -0.250000000  -0.250000000
          6  -0.250000000  -0.250000000   0.250000000
          7  -0.250000000   0.250000000   0.250000000
          8   0.250000000   0.250000000  -0.250000000

     Diagonalizing the dynamical matrix

     q = (   -0.250000000   0.250000000  -0.250000000 ) 

 **************************************************************************
     freq (    1) =       2.759244 [THz] =      92.038478 [cm-1]
     freq (    2) =       2.759244 [THz] =      92.038478 [cm-1]
     freq (    3) =       6.821724 [THz] =     227.548215 [cm-1]
     freq (    4) =      14.412654 [THz] =     480.754380 [cm-1]
     freq (    5) =      14.709197 [THz] =     490.645985 [cm-1]
     freq (    6) =      14.709197 [THz] =     490.645985 [cm-1]
 **************************************************************************

     Mode symmetry, C_3v (3m)   point group:

     freq (  1 -  2) =         92.0  [cm-1]   --> E    L_3           
     freq (  3 -  3) =        227.5  [cm-1]   --> A_1  L_1           
     freq (  4 -  4) =        480.8  [cm-1]   --> A_1  L_1           
     freq (  5 -  6) =        490.6  [cm-1]   --> E    L_3           

     Calculation of q =    0.5000000  -0.5000000   0.5000000

   Info: using nr1, nr2, nr3 values from input

   Info: using nr1, nr2, nr3 values from input

     Parallelization info
     --------------------
     sticks:   dense  smooth     PW     G-vecs:    dense   smooth      PW
     Min         217     108     40                 4240     1495     351
     Max         219     109     41                 4241     1498     354
     Sum         871     433    163                16961     5985    1411



     bravais-lattice index     =            2
     lattice parameter (alat)  =      10.2880  a.u.
     unit-cell volume          =     272.2281 (a.u.)^3
     number of atoms/cell      =            2
     number of atomic types    =            1
     number of electrons       =         8.00
     number of Kohn-Sham states=            4
     kinetic-energy cutoff     =      30.0000  Ry
     charge density cutoff     =     240.0000  Ry
     Exchange-correlation      = SLA  PW   PBE  PBE ( 1  4  3  4 0 0)

     celldm(1)=  10.288000  celldm(2)=   0.000000  celldm(3)=   0.000000
     celldm(4)=   0.000000  celldm(5)=   0.000000  celldm(6)=   0.000000

     crystal axes: (cart. coord. in units of alat)
               a(1) = (  -0.500000   0.000000   0.500000 )  
               a(2) = (   0.000000   0.500000   0.500000 )  
               a(3) = (  -0.500000   0.500000   0.000000 )  

     reciprocal axes: (cart. coord. in units 2 pi/alat)
               b(1) = ( -1.000000 -1.000000  1.000000 )  
               b(2) = (  1.000000  1.000000  1.000000 )  
               b(3) = ( -1.000000  1.000000 -1.000000 )  


     PseudoPot. # 1 for Si read from file:
     /home/s1333534/quantum_espresso/qe-6.1/pseudo/si_pbe_v1.uspp.F.UPF.txt
     MD5 check sum: a056efeee980c13900f22a371efd63c1
     Pseudo is Ultrasoft + core correction, Zval =  4.0
     Generated by new atomic code, or converted to UPF format
     Using radial grid of  899 points,  6 beta functions with: 
                l(1) =   0
                l(2) =   0
                l(3) =   1
                l(4) =   1
                l(5) =   2
                l(6) =   2
     Q(r) pseudized with  8 coefficients,  rinner =    0.900   0.900   0.900
                                                       0.900   0.900

     atomic species   valence    mass     pseudopotential
        Si             4.00    28.08600     Si( 1.00)

     48 Sym. Ops., with inversion, found



   Cartesian axes

     site n.     atom                  positions (alat units)
         1           Si  tau(   1) = (   0.0000000   0.0000000   0.0000000  )
         2           Si  tau(   2) = (   0.2500000   0.2500000   0.2500000  )

     number of k points=    60
                       cart. coord. in units 2pi/alat
        k(    1) = (  -0.1250000   0.1250000   0.1250000), wk =   0.0468750
        k(    2) = (   0.3750000  -0.3750000   0.6250000), wk =   0.0000000
        k(    3) = (  -0.3750000   0.3750000  -0.1250000), wk =   0.0468750
        k(    4) = (   0.1250000  -0.1250000   0.3750000), wk =   0.0000000
        k(    5) = (   0.3750000  -0.3750000   0.6250000), wk =   0.0468750
        k(    6) = (   0.8750000  -0.8750000   1.1250000), wk =   0.0000000
        k(    7) = (   0.1250000  -0.1250000   0.3750000), wk =   0.0468750
        k(    8) = (   0.6250000  -0.6250000   0.8750000), wk =   0.0000000
        k(    9) = (  -0.1250000   0.6250000   0.1250000), wk =   0.0937500
        k(   10) = (   0.3750000   0.1250000   0.6250000), wk =   0.0000000
        k(   11) = (   0.6250000  -0.1250000   0.8750000), wk =   0.0937500
        k(   12) = (   1.1250000  -0.6250000   1.3750000), wk =   0.0000000
        k(   13) = (   0.3750000   0.1250000   0.6250000), wk =   0.0937500
        k(   14) = (   0.8750000  -0.3750000   1.1250000), wk =   0.0000000
        k(   15) = (  -0.1250000  -0.8750000   0.1250000), wk =   0.0937500
        k(   16) = (   0.3750000  -1.3750000   0.6250000), wk =   0.0000000
        k(   17) = (  -0.3750000   0.3750000   0.3750000), wk =   0.0468750
        k(   18) = (   0.1250000  -0.1250000   0.8750000), wk =   0.0000000
        k(   19) = (   0.3750000  -0.3750000   1.1250000), wk =   0.0468750
        k(   20) = (   0.8750000  -0.8750000   1.6250000), wk =   0.0000000
        k(   21) = (   0.1250000  -0.1250000   0.1250000), wk =   0.0156250
        k(   22) = (   0.6250000  -0.6250000   0.6250000), wk =   0.0000000
        k(   23) = (  -0.3750000  -0.3750000  -0.1250000), wk =   0.0937500
        k(   24) = (   0.1250000  -0.8750000   0.3750000), wk =   0.0000000
        k(   25) = (  -0.1250000  -0.3750000   0.3750000), wk =   0.0468750
        k(   26) = (   0.3750000  -0.8750000   0.8750000), wk =   0.0000000
        k(   27) = (   0.3750000   0.3750000   0.6250000), wk =   0.0937500
        k(   28) = (   0.8750000  -0.1250000   1.1250000), wk =   0.0000000
        k(   29) = (   0.6250000   0.3750000  -0.3750000), wk =   0.0468750
        k(   30) = (   1.1250000  -0.1250000   0.1250000), wk =   0.0000000
        k(   31) = (   0.1250000   0.1250000   0.3750000), wk =   0.0937500
        k(   32) = (   0.6250000  -0.3750000   0.8750000), wk =   0.0000000
        k(   33) = (   0.3750000   0.1250000  -0.1250000), wk =   0.0468750
        k(   34) = (   0.8750000  -0.3750000   0.3750000), wk =   0.0000000
        k(   35) = (  -0.1250000  -0.6250000  -0.1250000), wk =   0.0468750
        k(   36) = (   0.3750000  -1.1250000   0.3750000), wk =   0.0000000
        k(   37) = (   0.1250000  -0.6250000   0.1250000), wk =   0.0468750
        k(   38) = (   0.6250000  -1.1250000   0.6250000), wk =   0.0000000
        k(   39) = (   0.6250000   0.1250000   0.8750000), wk =   0.0937500
        k(   40) = (   1.1250000  -0.3750000   1.3750000), wk =   0.0000000
        k(   41) = (  -0.8750000   0.1250000   0.6250000), wk =   0.0937500
        k(   42) = (  -0.3750000  -0.3750000   1.1250000), wk =   0.0000000
        k(   43) = (   0.8750000   0.1250000  -0.6250000), wk =   0.0937500
        k(   44) = (   1.3750000  -0.3750000  -0.1250000), wk =   0.0000000
        k(   45) = (   0.3750000  -0.1250000   0.6250000), wk =   0.0937500
        k(   46) = (   0.8750000  -0.6250000   1.1250000), wk =   0.0000000
        k(   47) = (  -0.6250000  -0.1250000   0.3750000), wk =   0.0937500
        k(   48) = (  -0.1250000  -0.6250000   0.8750000), wk =   0.0000000
        k(   49) = (   0.6250000  -0.1250000  -0.3750000), wk =   0.0937500
        k(   50) = (   1.1250000  -0.6250000   0.1250000), wk =   0.0000000
        k(   51) = (  -0.1250000   0.8750000  -0.1250000), wk =   0.0468750
        k(   52) = (   0.3750000   0.3750000   0.3750000), wk =   0.0000000
        k(   53) = (   0.1250000   0.8750000   0.1250000), wk =   0.0468750
        k(   54) = (   0.6250000   0.3750000   0.6250000), wk =   0.0000000
        k(   55) = (   0.3750000  -0.3750000   0.3750000), wk =   0.0156250
        k(   56) = (   0.8750000  -0.8750000   0.8750000), wk =   0.0000000
        k(   57) = (   0.3750000   0.3750000   1.1250000), wk =   0.0937500
        k(   58) = (   0.8750000  -0.1250000   1.6250000), wk =   0.0000000
        k(   59) = (   1.1250000   0.3750000  -0.3750000), wk =   0.0468750
        k(   60) = (   1.6250000  -0.1250000   0.1250000), wk =   0.0000000

     Dense  grid:    16961 G-vectors     FFT dimensions: (  36,  36,  36)

     Smooth grid:     5985 G-vectors     FFT dimensions: (  25,  25,  25)

     Estimated max dynamical RAM per process >       1.51MB

     Estimated total allocated dynamical RAM >       6.02MB

     The potential is recalculated from file :
     ./_ph0/silicon.10.288.save/charge-density.dat

     Starting wfc are    8 atomic wfcs

     Band Structure Calculation
     Davidson diagonalization with overlap

     ethr =  1.25E-10,  avg # of iterations = 12.2

     total cpu time spent up to now is        2.4 secs

     End of band structure calculation

          k =-0.1250 0.1250 0.1250 (   746 PWs)   bands (ev):

    -5.5892   4.5200   5.8290   5.8290

          k = 0.3750-0.3750 0.6250 (   759 PWs)   bands (ev):

    -3.3936  -0.5993   3.8483   4.5640

          k =-0.3750 0.3750-0.1250 (   757 PWs)   bands (ev):

    -4.5505   1.5062   3.8214   5.3457

          k = 0.1250-0.1250 0.3750 (   765 PWs)   bands (ev):

    -5.0554   2.8981   4.8079   4.8794

          k = 0.3750-0.3750 0.6250 (   759 PWs)   bands (ev):

    -3.3936  -0.5993   3.8483   4.5640

          k = 0.8750-0.8750 1.1250 (   746 PWs)   bands (ev):

    -5.5892   4.5200   5.8290   5.8290

          k = 0.1250-0.1250 0.3750 (   765 PWs)   bands (ev):

    -5.0554   2.8981   4.8079   4.8794

          k = 0.6250-0.6250 0.8750 (   757 PWs)   bands (ev):

    -4.5505   1.5062   3.8214   5.3457

          k =-0.1250 0.6250 0.1250 (   760 PWs)   bands (ev):

    -4.0123   1.1836   3.4659   3.9243

          k = 0.3750 0.1250 0.6250 (   756 PWs)   bands (ev):

    -3.5905   0.2936   2.8189   4.2016

          k = 0.6250-0.1250 0.8750 (   751 PWs)   bands (ev):

    -2.3503  -0.7965   2.0900   3.1811

          k = 1.1250-0.6250 1.3750 (   757 PWs)   bands (ev):

    -4.5505   1.5062   3.8214   5.3457

          k = 0.3750 0.1250 0.6250 (   756 PWs)   bands (ev):

    -3.5905   0.2936   2.8189   4.2016

          k = 0.8750-0.3750 1.1250 (   760 PWs)   bands (ev):

    -4.0123   1.1836   3.4659   3.9243

          k =-0.1250-0.8750 0.1250 (   757 PWs)   bands (ev):

    -2.5231  -0.6964   2.7088   3.4526

          k = 0.3750-1.3750 0.6250 (   759 PWs)   bands (ev):

    -3.3936  -0.5993   3.8483   4.5640

          k =-0.3750 0.3750 0.3750 (   763 PWs)   bands (ev):

    -4.1113   0.1967   5.0351   5.0351

          k = 0.1250-0.1250 0.8750 (   757 PWs)   bands (ev):

    -2.5231  -0.6964   2.7088   3.4526

          k = 0.3750-0.3750 1.1250 (   757 PWs)   bands (ev):

    -2.8926  -0.5009   2.1540   4.2426

          k = 0.8750-0.8750 1.6250 (   760 PWs)   bands (ev):

    -4.0123   1.1836   3.4659   3.9243

          k = 0.1250-0.1250 0.1250 (   746 PWs)   bands (ev):

    -5.5892   4.5200   5.8290   5.8290

          k = 0.6250-0.6250 0.6250 (   763 PWs)   bands (ev):

    -4.1113   0.1967   5.0351   5.0351

          k =-0.3750-0.3750-0.1250 (   757 PWs)   bands (ev):

    -4.5505   1.5062   3.8214   5.3457

          k = 0.1250-0.8750 0.3750 (   751 PWs)   bands (ev):

    -2.3503  -0.7965   2.0900   3.1811

          k =-0.1250-0.3750 0.3750 (   757 PWs)   bands (ev):

    -4.5505   1.5062   3.8214   5.3457

          k = 0.3750-0.8750 0.8750 (   760 PWs)   bands (ev):

    -4.0123   1.1836   3.4659   3.9243

          k = 0.3750 0.3750 0.6250 (   759 PWs)   bands (ev):

    -3.3936  -0.5993   3.8483   4.5640

          k = 0.8750-0.1250 1.1250 (   757 PWs)   bands (ev):

    -2.5231  -0.6964   2.7088   3.4526

          k = 0.6250 0.3750-0.3750 (   759 PWs)   bands (ev):

    -3.3936  -0.5993   3.8483   4.5640

          k = 1.1250-0.1250 0.1250 (   757 PWs)   bands (ev):

    -2.5231  -0.6964   2.7088   3.4526

          k = 0.1250 0.1250 0.3750 (   765 PWs)   bands (ev):

    -5.0554   2.8981   4.8079   4.8794

          k = 0.6250-0.3750 0.8750 (   756 PWs)   bands (ev):

    -3.5905   0.2936   2.8189   4.2016

          k = 0.3750 0.1250-0.1250 (   765 PWs)   bands (ev):

    -5.0554   2.8981   4.8079   4.8794

          k = 0.8750-0.3750 0.3750 (   757 PWs)   bands (ev):

    -2.8926  -0.5009   2.1540   4.2426

          k =-0.1250-0.6250-0.1250 (   760 PWs)   bands (ev):

    -4.0123   1.1836   3.4659   3.9243

          k = 0.3750-1.1250 0.3750 (   757 PWs)   bands (ev):

    -2.8926  -0.5009   2.1540   4.2426

          k = 0.1250-0.6250 0.1250 (   760 PWs)   bands (ev):

    -4.0123   1.1836   3.4659   3.9243

          k = 0.6250-1.1250 0.6250 (   757 PWs)   bands (ev):

    -4.5505   1.5062   3.8214   5.3457

          k = 0.6250 0.1250 0.8750 (   751 PWs)   bands (ev):

    -2.3503  -0.7965   2.0900   3.1811

          k = 1.1250-0.3750 1.3750 (   756 PWs)   bands (ev):

    -3.5905   0.2936   2.8189   4.2016

          k =-0.8750 0.1250 0.6250 (   751 PWs)   bands (ev):

    -2.3503  -0.7965   2.0900   3.1811

          k =-0.3750-0.3750 1.1250 (   757 PWs)   bands (ev):

    -2.8926  -0.5009   2.1540   4.2426

          k = 0.8750 0.1250-0.6250 (   751 PWs)   bands (ev):

    -2.3503  -0.7965   2.0900   3.1811

          k = 1.3750-0.3750-0.1250 (   756 PWs)   bands (ev):

    -3.5905   0.2936   2.8189   4.2016

          k = 0.3750-0.1250 0.6250 (   756 PWs)   bands (ev):

    -3.5905   0.2936   2.8189   4.2016

          k = 0.8750-0.6250 1.1250 (   765 PWs)   bands (ev):

    -5.0554   2.8981   4.8079   4.8794

          k =-0.6250-0.1250 0.3750 (   756 PWs)   bands (ev):

    -3.5905   0.2936   2.8189   4.2016

          k =-0.1250-0.6250 0.8750 (   751 PWs)   bands (ev):

    -2.3503  -0.7965   2.0900   3.1811

          k = 0.6250-0.1250-0.3750 (   756 PWs)   bands (ev):

    -3.5905   0.2936   2.8189   4.2016

          k = 1.1250-0.6250 0.1250 (   751 PWs)   bands (ev):

    -2.3503  -0.7965   2.0900   3.1811

          k =-0.1250 0.8750-0.1250 (   757 PWs)   bands (ev):

    -2.5231  -0.6964   2.7088   3.4526

          k = 0.3750 0.3750 0.3750 (   763 PWs)   bands (ev):

    -4.1113   0.1967   5.0351   5.0351

          k = 0.1250 0.8750 0.1250 (   757 PWs)   bands (ev):

    -2.5231  -0.6964   2.7088   3.4526

          k = 0.6250 0.3750 0.6250 (   759 PWs)   bands (ev):

    -3.3936  -0.5993   3.8483   4.5640

          k = 0.3750-0.3750 0.3750 (   763 PWs)   bands (ev):

    -4.1113   0.1967   5.0351   5.0351

          k = 0.8750-0.8750 0.8750 (   746 PWs)   bands (ev):

    -5.5892   4.5200   5.8290   5.8290

          k = 0.3750 0.3750 1.1250 (   757 PWs)   bands (ev):

    -2.8926  -0.5009   2.1540   4.2426

          k = 0.8750-0.1250 1.6250 (   751 PWs)   bands (ev):

    -2.3503  -0.7965   2.0900   3.1811

          k = 1.1250 0.3750-0.3750 (   757 PWs)   bands (ev):

    -2.8926  -0.5009   2.1540   4.2426

          k = 1.6250-0.1250 0.1250 (   765 PWs)   bands (ev):

    -5.0554   2.8981   4.8079   4.8794

     highest occupied level (ev):     5.8290

     Writing output data file silicon.10.288.save

                                                                                

     bravais-lattice index     =            2
     lattice parameter (alat)  =      10.2880  a.u.
     unit-cell volume          =     272.2281 (a.u.)^3
     number of atoms/cell      =            2
     number of atomic types    =            1
     kinetic-energy cut-off    =      30.0000  Ry
     charge density cut-off    =     240.0000  Ry
     convergence threshold     =      1.0E-12
     beta                      =       0.7000
     number of iterations used =            4
     Exchange-correlation      = SLA  PW   PBE  PBE ( 1  4  3  4 0 0)


     celldm(1)=   10.28800  celldm(2)=    0.00000  celldm(3)=    0.00000
     celldm(4)=    0.00000  celldm(5)=    0.00000  celldm(6)=    0.00000

     crystal axes: (cart. coord. in units of alat)
               a(1) = ( -0.5000  0.0000  0.5000 )  
               a(2) = (  0.0000  0.5000  0.5000 )  
               a(3) = ( -0.5000  0.5000  0.0000 )  

     reciprocal axes: (cart. coord. in units 2 pi/alat)
               b(1) = ( -1.0000 -1.0000  1.0000 )  
               b(2) = (  1.0000  1.0000  1.0000 )  
               b(3) = ( -1.0000  1.0000 -1.0000 )  


     Atoms inside the unit cell: 

     Cartesian axes

     site n.  atom      mass           positions (alat units)
        1     Si  28.0860   tau(    1) = (    0.00000    0.00000    0.00000  )
        2     Si  28.0860   tau(    2) = (    0.25000    0.25000    0.25000  )

     Computing dynamical matrix for 
                    q = (   0.5000000  -0.5000000   0.5000000 )

     13 Sym.Ops. (with q -> -q+G )


     G cutoff =  643.4479  (   4241 G-vectors)     FFT grid: ( 36, 36, 36)
     G cutoff =  321.7240  (   1497 G-vectors)  smooth grid: ( 25, 25, 25)
     number of k points=    60

     PseudoPot. # 1 for Si read from file:
     /home/s1333534/quantum_espresso/qe-6.1/pseudo/si_pbe_v1.uspp.F.UPF.txt
     MD5 check sum: a056efeee980c13900f22a371efd63c1
     Pseudo is Ultrasoft + core correction, Zval =  4.0
     Generated by new atomic code, or converted to UPF format
     Using radial grid of  899 points,  6 beta functions with: 
                l(1) =   0
                l(2) =   0
                l(3) =   1
                l(4) =   1
                l(5) =   2
                l(6) =   2
     Q(r) pseudized with  8 coefficients,  rinner =    0.900   0.900   0.900
                                                       0.900   0.900


     Atomic displacements:
     There are   4 irreducible representations

     Representation     1      1 modes -  To be done

     Representation     2      1 modes -  To be done

     Representation     3      2 modes -  To be done

     Representation     4      2 modes -  To be done



     Alpha used in Ewald sum =   2.5000
     PHONON       :    27.46s CPU        35.17s WALL



     Representation #  1 mode #   1

     Self-consistent Calculation

      iter #   1 total cpu time :    35.5 secs   av.it.:   5.1
      thresh= 1.000E-02 alpha_mix =  0.700 |ddv_scf|^2 =  4.236E-06

      iter #   2 total cpu time :    35.9 secs   av.it.:   9.9
      thresh= 2.058E-04 alpha_mix =  0.700 |ddv_scf|^2 =  3.845E-06

      iter #   3 total cpu time :    36.3 secs   av.it.:   9.2
      thresh= 1.961E-04 alpha_mix =  0.700 |ddv_scf|^2 =  2.346E-09

      iter #   4 total cpu time :    36.8 secs   av.it.:   9.4
      thresh= 4.844E-06 alpha_mix =  0.700 |ddv_scf|^2 =  2.277E-11

      iter #   5 total cpu time :    37.1 secs   av.it.:   9.3
      thresh= 4.772E-07 alpha_mix =  0.700 |ddv_scf|^2 =  3.037E-13

     End of self-consistent calculation

     Convergence has been achieved 


     Representation #  2 mode #   2

     Self-consistent Calculation

      iter #   1 total cpu time :    37.6 secs   av.it.:   6.0
      thresh= 1.000E-02 alpha_mix =  0.700 |ddv_scf|^2 =  6.026E-05

      iter #   2 total cpu time :    38.0 secs   av.it.:   9.7
      thresh= 7.763E-04 alpha_mix =  0.700 |ddv_scf|^2 =  1.869E-04

      iter #   3 total cpu time :    38.4 secs   av.it.:   8.6
      thresh= 1.367E-03 alpha_mix =  0.700 |ddv_scf|^2 =  1.273E-08

      iter #   4 total cpu time :    38.8 secs   av.it.:   9.8
      thresh= 1.128E-05 alpha_mix =  0.700 |ddv_scf|^2 =  6.439E-10

      iter #   5 total cpu time :    39.3 secs   av.it.:  10.2
      thresh= 2.538E-06 alpha_mix =  0.700 |ddv_scf|^2 =  1.984E-11

      iter #   6 total cpu time :    39.6 secs   av.it.:   9.7
      thresh= 4.454E-07 alpha_mix =  0.700 |ddv_scf|^2 =  1.509E-13

     End of self-consistent calculation

     Convergence has been achieved 


     Representation #  3 modes #   3  4

     Self-consistent Calculation

      iter #   1 total cpu time :    40.2 secs   av.it.:   5.1
      thresh= 1.000E-02 alpha_mix =  0.700 |ddv_scf|^2 =  2.708E-08

      iter #   2 total cpu time :    41.0 secs   av.it.:  10.9
      thresh= 1.646E-05 alpha_mix =  0.700 |ddv_scf|^2 =  1.601E-09

      iter #   3 total cpu time :    41.8 secs   av.it.:  10.7
      thresh= 4.001E-06 alpha_mix =  0.700 |ddv_scf|^2 =  5.295E-11

      iter #   4 total cpu time :    42.4 secs   av.it.:  10.7
      thresh= 7.277E-07 alpha_mix =  0.700 |ddv_scf|^2 =  4.347E-13

     End of self-consistent calculation

     Convergence has been achieved 


     Representation #  4 modes #   5  6

     Self-consistent Calculation

      iter #   1 total cpu time :    43.1 secs   av.it.:   5.1
      thresh= 1.000E-02 alpha_mix =  0.700 |ddv_scf|^2 =  1.384E-07

      iter #   2 total cpu time :    43.9 secs   av.it.:  11.1
      thresh= 3.720E-05 alpha_mix =  0.700 |ddv_scf|^2 =  1.109E-08

      iter #   3 total cpu time :    44.7 secs   av.it.:  10.9
      thresh= 1.053E-05 alpha_mix =  0.700 |ddv_scf|^2 =  2.922E-10

      iter #   4 total cpu time :    45.3 secs   av.it.:   9.9
      thresh= 1.709E-06 alpha_mix =  0.700 |ddv_scf|^2 =  5.198E-13

     End of self-consistent calculation

     Convergence has been achieved 

     Number of q in the star =    4
     List of q in the star:
          1   0.500000000  -0.500000000   0.500000000
          2   0.500000000   0.500000000   0.500000000
          3  -0.500000000   0.500000000   0.500000000
          4   0.500000000   0.500000000  -0.500000000

     Diagonalizing the dynamical matrix

     q = (    0.500000000  -0.500000000   0.500000000 ) 

 **************************************************************************
     freq (    1) =       3.231287 [THz] =     107.784122 [cm-1]
     freq (    2) =       3.231287 [THz] =     107.784122 [cm-1]
     freq (    3) =      11.149862 [THz] =     371.919357 [cm-1]
     freq (    4) =      12.224897 [THz] =     407.778671 [cm-1]
     freq (    5) =      14.515193 [THz] =     484.174721 [cm-1]
     freq (    6) =      14.515193 [THz] =     484.174721 [cm-1]
 **************************************************************************

     Calculation of q =    0.0000000   0.5000000   0.0000000

   Info: using nr1, nr2, nr3 values from input

   Info: using nr1, nr2, nr3 values from input

     Parallelization info
     --------------------
     sticks:   dense  smooth     PW     G-vecs:    dense   smooth      PW
     Min         217     108     37                 4240     1495     309
     Max         219     109     38                 4241     1498     312
     Sum         871     433    151                16961     5985    1243



     bravais-lattice index     =            2
     lattice parameter (alat)  =      10.2880  a.u.
     unit-cell volume          =     272.2281 (a.u.)^3
     number of atoms/cell      =            2
     number of atomic types    =            1
     number of electrons       =         8.00
     number of Kohn-Sham states=            4
     kinetic-energy cutoff     =      30.0000  Ry
     charge density cutoff     =     240.0000  Ry
     Exchange-correlation      = SLA  PW   PBE  PBE ( 1  4  3  4 0 0)

     celldm(1)=  10.288000  celldm(2)=   0.000000  celldm(3)=   0.000000
     celldm(4)=   0.000000  celldm(5)=   0.000000  celldm(6)=   0.000000

     crystal axes: (cart. coord. in units of alat)
               a(1) = (  -0.500000   0.000000   0.500000 )  
               a(2) = (   0.000000   0.500000   0.500000 )  
               a(3) = (  -0.500000   0.500000   0.000000 )  

     reciprocal axes: (cart. coord. in units 2 pi/alat)
               b(1) = ( -1.000000 -1.000000  1.000000 )  
               b(2) = (  1.000000  1.000000  1.000000 )  
               b(3) = ( -1.000000  1.000000 -1.000000 )  


     PseudoPot. # 1 for Si read from file:
     /home/s1333534/quantum_espresso/qe-6.1/pseudo/si_pbe_v1.uspp.F.UPF.txt
     MD5 check sum: a056efeee980c13900f22a371efd63c1
     Pseudo is Ultrasoft + core correction, Zval =  4.0
     Generated by new atomic code, or converted to UPF format
     Using radial grid of  899 points,  6 beta functions with: 
                l(1) =   0
                l(2) =   0
                l(3) =   1
                l(4) =   1
                l(5) =   2
                l(6) =   2
     Q(r) pseudized with  8 coefficients,  rinner =    0.900   0.900   0.900
                                                       0.900   0.900

     atomic species   valence    mass     pseudopotential
        Si             4.00    28.08600     Si( 1.00)

     48 Sym. Ops., with inversion, found



   Cartesian axes

     site n.     atom                  positions (alat units)
         1           Si  tau(   1) = (   0.0000000   0.0000000   0.0000000  )
         2           Si  tau(   2) = (   0.2500000   0.2500000   0.2500000  )

     number of k points=    80
                       cart. coord. in units 2pi/alat
        k(    1) = (  -0.1250000   0.1250000   0.1250000), wk =   0.0312500
        k(    2) = (  -0.1250000   0.6250000   0.1250000), wk =   0.0000000
        k(    3) = (  -0.3750000   0.3750000  -0.1250000), wk =   0.0625000
        k(    4) = (  -0.3750000   0.8750000  -0.1250000), wk =   0.0000000
        k(    5) = (   0.3750000  -0.3750000   0.6250000), wk =   0.0625000
        k(    6) = (   0.3750000   0.1250000   0.6250000), wk =   0.0000000
        k(    7) = (   0.1250000  -0.1250000   0.3750000), wk =   0.0625000
        k(    8) = (   0.1250000   0.3750000   0.3750000), wk =   0.0000000
        k(    9) = (  -0.1250000   0.6250000   0.1250000), wk =   0.0312500
        k(   10) = (  -0.1250000   1.1250000   0.1250000), wk =   0.0000000
        k(   11) = (   0.6250000  -0.1250000   0.8750000), wk =   0.0625000
        k(   12) = (   0.6250000   0.3750000   0.8750000), wk =   0.0000000
        k(   13) = (   0.3750000   0.1250000   0.6250000), wk =   0.0625000
        k(   14) = (   0.3750000   0.6250000   0.6250000), wk =   0.0000000
        k(   15) = (  -0.1250000  -0.8750000   0.1250000), wk =   0.0312500
        k(   16) = (  -0.1250000  -0.3750000   0.1250000), wk =   0.0000000
        k(   17) = (  -0.3750000   0.3750000   0.3750000), wk =   0.0312500
        k(   18) = (  -0.3750000   0.8750000   0.3750000), wk =   0.0000000
        k(   19) = (   0.3750000  -0.3750000   1.1250000), wk =   0.0625000
        k(   20) = (   0.3750000   0.1250000   1.1250000), wk =   0.0000000
        k(   21) = (  -0.1250000  -0.1250000   0.1250000), wk =   0.0312500
        k(   22) = (  -0.1250000   0.3750000   0.1250000), wk =   0.0000000
        k(   23) = (   0.1250000  -0.3750000   0.3750000), wk =   0.0625000
        k(   24) = (   0.1250000   0.1250000   0.3750000), wk =   0.0000000
        k(   25) = (   0.3750000  -0.1250000   0.3750000), wk =   0.0312500
        k(   26) = (   0.3750000   0.3750000   0.3750000), wk =   0.0000000
        k(   27) = (   0.3750000   0.1250000   0.3750000), wk =   0.0312500
        k(   28) = (   0.3750000   0.6250000   0.3750000), wk =   0.0000000
        k(   29) = (  -0.6250000   0.3750000  -0.3750000), wk =   0.0625000
        k(   30) = (  -0.6250000   0.8750000  -0.3750000), wk =   0.0000000
        k(   31) = (  -0.3750000   0.6250000  -0.3750000), wk =   0.0312500
        k(   32) = (  -0.3750000   1.1250000  -0.3750000), wk =   0.0000000
        k(   33) = (  -0.3750000  -0.6250000  -0.3750000), wk =   0.0312500
        k(   34) = (  -0.3750000  -0.1250000  -0.3750000), wk =   0.0000000
        k(   35) = (  -0.3750000   0.1250000  -0.1250000), wk =   0.0625000
        k(   36) = (  -0.3750000   0.6250000  -0.1250000), wk =   0.0000000
        k(   37) = (  -0.1250000   0.3750000  -0.1250000), wk =   0.0312500
        k(   38) = (  -0.1250000   0.8750000  -0.1250000), wk =   0.0000000
        k(   39) = (  -0.1250000  -0.3750000  -0.1250000), wk =   0.0312500
        k(   40) = (  -0.1250000   0.1250000  -0.1250000), wk =   0.0000000
        k(   41) = (  -0.1250000  -0.6250000   0.1250000), wk =   0.0312500
        k(   42) = (  -0.1250000  -0.1250000   0.1250000), wk =   0.0000000
        k(   43) = (   0.6250000  -0.1250000  -0.1250000), wk =   0.0625000
        k(   44) = (   0.6250000   0.3750000  -0.1250000), wk =   0.0000000
        k(   45) = (   0.6250000   0.1250000   0.1250000), wk =   0.0625000
        k(   46) = (   0.6250000   0.6250000   0.1250000), wk =   0.0000000
        k(   47) = (  -0.8750000   0.1250000  -0.6250000), wk =   0.0625000
        k(   48) = (  -0.8750000   0.6250000  -0.6250000), wk =   0.0000000
        k(   49) = (  -0.1250000   0.6250000  -0.8750000), wk =   0.0625000
        k(   50) = (  -0.1250000   1.1250000  -0.8750000), wk =   0.0000000
        k(   51) = (  -0.1250000   0.8750000  -0.6250000), wk =   0.0625000
        k(   52) = (  -0.1250000   1.3750000  -0.6250000), wk =   0.0000000
        k(   53) = (  -0.1250000  -0.8750000  -0.6250000), wk =   0.0625000
        k(   54) = (  -0.1250000  -0.3750000  -0.6250000), wk =   0.0000000
        k(   55) = (   0.8750000  -0.6250000   0.1250000), wk =   0.0625000
        k(   56) = (   0.8750000  -0.1250000   0.1250000), wk =   0.0000000
        k(   57) = (  -0.6250000  -0.1250000  -0.3750000), wk =   0.0625000
        k(   58) = (  -0.6250000   0.3750000  -0.3750000), wk =   0.0000000
        k(   59) = (   0.1250000   0.3750000  -0.6250000), wk =   0.0625000
        k(   60) = (   0.1250000   0.8750000  -0.6250000), wk =   0.0000000
        k(   61) = (   0.1250000   0.6250000  -0.3750000), wk =   0.0625000
        k(   62) = (   0.1250000   1.1250000  -0.3750000), wk =   0.0000000
        k(   63) = (   0.1250000  -0.6250000  -0.3750000), wk =   0.0625000
        k(   64) = (   0.1250000  -0.1250000  -0.3750000), wk =   0.0000000
        k(   65) = (   0.6250000  -0.3750000  -0.1250000), wk =   0.0625000
        k(   66) = (   0.6250000   0.1250000  -0.1250000), wk =   0.0000000
        k(   67) = (  -0.1250000   0.8750000   0.1250000), wk =   0.0312500
        k(   68) = (  -0.1250000   1.3750000   0.1250000), wk =   0.0000000
        k(   69) = (  -0.8750000  -0.1250000  -0.1250000), wk =   0.0625000
        k(   70) = (  -0.8750000   0.3750000  -0.1250000), wk =   0.0000000
        k(   71) = (  -0.8750000   0.1250000   0.1250000), wk =   0.0625000
        k(   72) = (  -0.8750000   0.6250000   0.1250000), wk =   0.0000000
        k(   73) = (  -0.3750000  -0.3750000   0.3750000), wk =   0.0312500
        k(   74) = (  -0.3750000   0.1250000   0.3750000), wk =   0.0000000
        k(   75) = (  -1.1250000   0.3750000  -0.3750000), wk =   0.0625000
        k(   76) = (  -1.1250000   0.8750000  -0.3750000), wk =   0.0000000
        k(   77) = (  -0.3750000   1.1250000  -0.3750000), wk =   0.0312500
        k(   78) = (  -0.3750000   1.6250000  -0.3750000), wk =   0.0000000
        k(   79) = (  -0.3750000  -1.1250000  -0.3750000), wk =   0.0312500
        k(   80) = (  -0.3750000  -0.6250000  -0.3750000), wk =   0.0000000

     Dense  grid:    16961 G-vectors     FFT dimensions: (  36,  36,  36)

     Smooth grid:     5985 G-vectors     FFT dimensions: (  25,  25,  25)

     Estimated max dynamical RAM per process >       1.51MB

     Estimated total allocated dynamical RAM >       6.02MB

     The potential is recalculated from file :
     ./_ph0/silicon.10.288.save/charge-density.dat

     Starting wfc are    8 atomic wfcs

     Band Structure Calculation
     Davidson diagonalization with overlap

     ethr =  1.25E-10,  avg # of iterations = 12.2

     total cpu time spent up to now is        3.5 secs

     End of band structure calculation

          k =-0.1250 0.1250 0.1250 (   746 PWs)   bands (ev):

    -5.5892   4.5200   5.8290   5.8290

          k =-0.1250 0.6250 0.1250 (   760 PWs)   bands (ev):

    -4.0123   1.1836   3.4659   3.9243

          k =-0.3750 0.3750-0.1250 (   757 PWs)   bands (ev):

    -4.5505   1.5062   3.8214   5.3457

          k =-0.3750 0.8750-0.1250 (   751 PWs)   bands (ev):

    -2.3503  -0.7965   2.0900   3.1811

          k = 0.3750-0.3750 0.6250 (   759 PWs)   bands (ev):

    -3.3936  -0.5993   3.8483   4.5640

          k = 0.3750 0.1250 0.6250 (   756 PWs)   bands (ev):

    -3.5905   0.2936   2.8189   4.2016

          k = 0.1250-0.1250 0.3750 (   765 PWs)   bands (ev):

    -5.0554   2.8981   4.8079   4.8794

          k = 0.1250 0.3750 0.3750 (   757 PWs)   bands (ev):

    -4.5505   1.5062   3.8214   5.3457

          k =-0.1250 0.6250 0.1250 (   760 PWs)   bands (ev):

    -4.0123   1.1836   3.4659   3.9243

          k =-0.1250 1.1250 0.1250 (   757 PWs)   bands (ev):

    -2.5231  -0.6964   2.7088   3.4526

          k = 0.6250-0.1250 0.8750 (   751 PWs)   bands (ev):

    -2.3503  -0.7965   2.0900   3.1811

          k = 0.6250 0.3750 0.8750 (   756 PWs)   bands (ev):

    -3.5905   0.2936   2.8189   4.2016

          k = 0.3750 0.1250 0.6250 (   756 PWs)   bands (ev):

    -3.5905   0.2936   2.8189   4.2016

          k = 0.3750 0.6250 0.6250 (   759 PWs)   bands (ev):

    -3.3936  -0.5993   3.8483   4.5640

          k =-0.1250-0.8750 0.1250 (   757 PWs)   bands (ev):

    -2.5231  -0.6964   2.7088   3.4526

          k =-0.1250-0.3750 0.1250 (   765 PWs)   bands (ev):

    -5.0554   2.8981   4.8079   4.8794

          k =-0.3750 0.3750 0.3750 (   763 PWs)   bands (ev):

    -4.1113   0.1967   5.0351   5.0351

          k =-0.3750 0.8750 0.3750 (   757 PWs)   bands (ev):

    -2.8926  -0.5009   2.1540   4.2426

          k = 0.3750-0.3750 1.1250 (   757 PWs)   bands (ev):

    -2.8926  -0.5009   2.1540   4.2426

          k = 0.3750 0.1250 1.1250 (   751 PWs)   bands (ev):

    -2.3503  -0.7965   2.0900   3.1811

          k =-0.1250-0.1250 0.1250 (   746 PWs)   bands (ev):

    -5.5892   4.5200   5.8290   5.8290

          k =-0.1250 0.3750 0.1250 (   765 PWs)   bands (ev):

    -5.0554   2.8981   4.8079   4.8794

          k = 0.1250-0.3750 0.3750 (   757 PWs)   bands (ev):

    -4.5505   1.5062   3.8214   5.3457

          k = 0.1250 0.1250 0.3750 (   765 PWs)   bands (ev):

    -5.0554   2.8981   4.8079   4.8794

          k = 0.3750-0.1250 0.3750 (   757 PWs)   bands (ev):

    -4.5505   1.5062   3.8214   5.3457

          k = 0.3750 0.3750 0.3750 (   763 PWs)   bands (ev):

    -4.1113   0.1967   5.0351   5.0351

          k = 0.3750 0.1250 0.3750 (   757 PWs)   bands (ev):

    -4.5505   1.5062   3.8214   5.3457

          k = 0.3750 0.6250 0.3750 (   759 PWs)   bands (ev):

    -3.3936  -0.5993   3.8483   4.5640

          k =-0.6250 0.3750-0.3750 (   759 PWs)   bands (ev):

    -3.3936  -0.5993   3.8483   4.5640

          k =-0.6250 0.8750-0.3750 (   756 PWs)   bands (ev):

    -3.5905   0.2936   2.8189   4.2016

          k =-0.3750 0.6250-0.3750 (   759 PWs)   bands (ev):

    -3.3936  -0.5993   3.8483   4.5640

          k =-0.3750 1.1250-0.3750 (   757 PWs)   bands (ev):

    -2.8926  -0.5009   2.1540   4.2426

          k =-0.3750-0.6250-0.3750 (   759 PWs)   bands (ev):

    -3.3936  -0.5993   3.8483   4.5640

          k =-0.3750-0.1250-0.3750 (   757 PWs)   bands (ev):

    -4.5505   1.5062   3.8214   5.3457

          k =-0.3750 0.1250-0.1250 (   765 PWs)   bands (ev):

    -5.0554   2.8981   4.8079   4.8794

          k =-0.3750 0.6250-0.1250 (   756 PWs)   bands (ev):

    -3.5905   0.2936   2.8189   4.2016

          k =-0.1250 0.3750-0.1250 (   765 PWs)   bands (ev):

    -5.0554   2.8981   4.8079   4.8794

          k =-0.1250 0.8750-0.1250 (   757 PWs)   bands (ev):

    -2.5231  -0.6964   2.7088   3.4526

          k =-0.1250-0.3750-0.1250 (   765 PWs)   bands (ev):

    -5.0554   2.8981   4.8079   4.8794

          k =-0.1250 0.1250-0.1250 (   746 PWs)   bands (ev):

    -5.5892   4.5200   5.8290   5.8290

          k =-0.1250-0.6250 0.1250 (   760 PWs)   bands (ev):

    -4.0123   1.1836   3.4659   3.9243

          k =-0.1250-0.1250 0.1250 (   746 PWs)   bands (ev):

    -5.5892   4.5200   5.8290   5.8290

          k = 0.6250-0.1250-0.1250 (   760 PWs)   bands (ev):

    -4.0123   1.1836   3.4659   3.9243

          k = 0.6250 0.3750-0.1250 (   756 PWs)   bands (ev):

    -3.5905   0.2936   2.8189   4.2016

          k = 0.6250 0.1250 0.1250 (   760 PWs)   bands (ev):

    -4.0123   1.1836   3.4659   3.9243

          k = 0.6250 0.6250 0.1250 (   757 PWs)   bands (ev):

    -2.8926  -0.5009   2.1540   4.2426

          k =-0.8750 0.1250-0.6250 (   751 PWs)   bands (ev):

    -2.3503  -0.7965   2.0900   3.1811

          k =-0.8750 0.6250-0.6250 (   757 PWs)   bands (ev):

    -4.5505   1.5062   3.8214   5.3457

          k =-0.1250 0.6250-0.8750 (   751 PWs)   bands (ev):

    -2.3503  -0.7965   2.0900   3.1811

          k =-0.1250 1.1250-0.8750 (   757 PWs)   bands (ev):

    -2.5231  -0.6964   2.7088   3.4526

          k =-0.1250 0.8750-0.6250 (   751 PWs)   bands (ev):

    -2.3503  -0.7965   2.0900   3.1811

          k =-0.1250 1.3750-0.6250 (   757 PWs)   bands (ev):

    -2.8926  -0.5009   2.1540   4.2426

          k =-0.1250-0.8750-0.6250 (   751 PWs)   bands (ev):

    -2.3503  -0.7965   2.0900   3.1811

          k =-0.1250-0.3750-0.6250 (   756 PWs)   bands (ev):

    -3.5905   0.2936   2.8189   4.2016

          k = 0.8750-0.6250 0.1250 (   751 PWs)   bands (ev):

    -2.3503  -0.7965   2.0900   3.1811

          k = 0.8750-0.1250 0.1250 (   757 PWs)   bands (ev):

    -2.5231  -0.6964   2.7088   3.4526

          k =-0.6250-0.1250-0.3750 (   756 PWs)   bands (ev):

    -3.5905   0.2936   2.8189   4.2016

          k =-0.6250 0.3750-0.3750 (   759 PWs)   bands (ev):

    -3.3936  -0.5993   3.8483   4.5640

          k = 0.1250 0.3750-0.6250 (   756 PWs)   bands (ev):

    -3.5905   0.2936   2.8189   4.2016

          k = 0.1250 0.8750-0.6250 (   751 PWs)   bands (ev):

    -2.3503  -0.7965   2.0900   3.1811

          k = 0.1250 0.6250-0.3750 (   756 PWs)   bands (ev):

    -3.5905   0.2936   2.8189   4.2016

          k = 0.1250 1.1250-0.3750 (   751 PWs)   bands (ev):

    -2.3503  -0.7965   2.0900   3.1811

          k = 0.1250-0.6250-0.3750 (   756 PWs)   bands (ev):

    -3.5905   0.2936   2.8189   4.2016

          k = 0.1250-0.1250-0.3750 (   765 PWs)   bands (ev):

    -5.0554   2.8981   4.8079   4.8794

          k = 0.6250-0.3750-0.1250 (   756 PWs)   bands (ev):

    -3.5905   0.2936   2.8189   4.2016

          k = 0.6250 0.1250-0.1250 (   760 PWs)   bands (ev):

    -4.0123   1.1836   3.4659   3.9243

          k =-0.1250 0.8750 0.1250 (   757 PWs)   bands (ev):

    -2.5231  -0.6964   2.7088   3.4526

          k =-0.1250 1.3750 0.1250 (   760 PWs)   bands (ev):

    -4.0123   1.1836   3.4659   3.9243

          k =-0.8750-0.1250-0.1250 (   757 PWs)   bands (ev):

    -2.5231  -0.6964   2.7088   3.4526

          k =-0.8750 0.3750-0.1250 (   751 PWs)   bands (ev):

    -2.3503  -0.7965   2.0900   3.1811

          k =-0.8750 0.1250 0.1250 (   757 PWs)   bands (ev):

    -2.5231  -0.6964   2.7088   3.4526

          k =-0.8750 0.6250 0.1250 (   751 PWs)   bands (ev):

    -2.3503  -0.7965   2.0900   3.1811

          k =-0.3750-0.3750 0.3750 (   763 PWs)   bands (ev):

    -4.1113   0.1967   5.0351   5.0351

          k =-0.3750 0.1250 0.3750 (   757 PWs)   bands (ev):

    -4.5505   1.5062   3.8214   5.3457

          k =-1.1250 0.3750-0.3750 (   757 PWs)   bands (ev):

    -2.8926  -0.5009   2.1540   4.2426

          k =-1.1250 0.8750-0.3750 (   760 PWs)   bands (ev):

    -4.0123   1.1836   3.4659   3.9243

          k =-0.3750 1.1250-0.3750 (   757 PWs)   bands (ev):

    -2.8926  -0.5009   2.1540   4.2426

          k =-0.3750 1.6250-0.3750 (   763 PWs)   bands (ev):

    -4.1113   0.1967   5.0351   5.0351

          k =-0.3750-1.1250-0.3750 (   757 PWs)   bands (ev):

    -2.8926  -0.5009   2.1540   4.2426

          k =-0.3750-0.6250-0.3750 (   759 PWs)   bands (ev):

    -3.3936  -0.5993   3.8483   4.5640

     highest occupied level (ev):     5.8290

     Writing output data file silicon.10.288.save

                                                                                

     bravais-lattice index     =            2
     lattice parameter (alat)  =      10.2880  a.u.
     unit-cell volume          =     272.2281 (a.u.)^3
     number of atoms/cell      =            2
     number of atomic types    =            1
     kinetic-energy cut-off    =      30.0000  Ry
     charge density cut-off    =     240.0000  Ry
     convergence threshold     =      1.0E-12
     beta                      =       0.7000
     number of iterations used =            4
     Exchange-correlation      = SLA  PW   PBE  PBE ( 1  4  3  4 0 0)


     celldm(1)=   10.28800  celldm(2)=    0.00000  celldm(3)=    0.00000
     celldm(4)=    0.00000  celldm(5)=    0.00000  celldm(6)=    0.00000

     crystal axes: (cart. coord. in units of alat)
               a(1) = ( -0.5000  0.0000  0.5000 )  
               a(2) = (  0.0000  0.5000  0.5000 )  
               a(3) = ( -0.5000  0.5000  0.0000 )  

     reciprocal axes: (cart. coord. in units 2 pi/alat)
               b(1) = ( -1.0000 -1.0000  1.0000 )  
               b(2) = (  1.0000  1.0000  1.0000 )  
               b(3) = ( -1.0000  1.0000 -1.0000 )  


     Atoms inside the unit cell: 

     Cartesian axes

     site n.  atom      mass           positions (alat units)
        1     Si  28.0860   tau(    1) = (    0.00000    0.00000    0.00000  )
        2     Si  28.0860   tau(    2) = (    0.25000    0.25000    0.25000  )

     Computing dynamical matrix for 
                    q = (   0.0000000   0.5000000   0.0000000 )

      8 Sym.Ops. (no q -> -q+G )


     G cutoff =  643.4479  (   4241 G-vectors)     FFT grid: ( 36, 36, 36)
     G cutoff =  321.7240  (   1496 G-vectors)  smooth grid: ( 25, 25, 25)
     number of k points=    80

     PseudoPot. # 1 for Si read from file:
     /home/s1333534/quantum_espresso/qe-6.1/pseudo/si_pbe_v1.uspp.F.UPF.txt
     MD5 check sum: a056efeee980c13900f22a371efd63c1
     Pseudo is Ultrasoft + core correction, Zval =  4.0
     Generated by new atomic code, or converted to UPF format
     Using radial grid of  899 points,  6 beta functions with: 
                l(1) =   0
                l(2) =   0
                l(3) =   1
                l(4) =   1
                l(5) =   2
                l(6) =   2
     Q(r) pseudized with  8 coefficients,  rinner =    0.900   0.900   0.900
                                                       0.900   0.900

     Mode symmetry, C_4v (4mm)  point group:


     Atomic displacements:
     There are   4 irreducible representations

     Representation     1      1 modes -A_1  G_1 D_1  To be done

     Representation     2      1 modes -B_2  G_4 D_2'  To be done

     Representation     3      2 modes -E    G_5 D_5  To be done

     Representation     4      2 modes -E    G_5 D_5  To be done



     Alpha used in Ewald sum =   2.5000
     PHONON       :    37.21s CPU        47.74s WALL



     Representation #  1 mode #   1

     Self-consistent Calculation

      iter #   1 total cpu time :    48.1 secs   av.it.:   6.2
      thresh= 1.000E-02 alpha_mix =  0.700 |ddv_scf|^2 =  5.191E-04

      iter #   2 total cpu time :    48.5 secs   av.it.:   9.2
      thresh= 2.278E-03 alpha_mix =  0.700 |ddv_scf|^2 =  6.849E-03

      iter #   3 total cpu time :    48.9 secs   av.it.:   7.3
      thresh= 8.276E-03 alpha_mix =  0.700 |ddv_scf|^2 =  1.067E-08

      iter #   4 total cpu time :    49.4 secs   av.it.:  10.1
      thresh= 1.033E-05 alpha_mix =  0.700 |ddv_scf|^2 =  9.707E-10

      iter #   5 total cpu time :    49.9 secs   av.it.:   9.6
      thresh= 3.116E-06 alpha_mix =  0.700 |ddv_scf|^2 =  1.169E-10

      iter #   6 total cpu time :    50.3 secs   av.it.:   9.3
      thresh= 1.081E-06 alpha_mix =  0.700 |ddv_scf|^2 =  3.651E-13

     End of self-consistent calculation

     Convergence has been achieved 


     Representation #  2 mode #   2

     Self-consistent Calculation

      iter #   1 total cpu time :    50.7 secs   av.it.:   5.1
      thresh= 1.000E-02 alpha_mix =  0.700 |ddv_scf|^2 =  8.146E-07

      iter #   2 total cpu time :    51.2 secs   av.it.:  10.4
      thresh= 9.026E-05 alpha_mix =  0.700 |ddv_scf|^2 =  2.187E-07

      iter #   3 total cpu time :    51.7 secs   av.it.:   9.9
      thresh= 4.676E-05 alpha_mix =  0.700 |ddv_scf|^2 =  2.213E-09

      iter #   4 total cpu time :    52.2 secs   av.it.:  10.1
      thresh= 4.705E-06 alpha_mix =  0.700 |ddv_scf|^2 =  8.431E-11

      iter #   5 total cpu time :    52.7 secs   av.it.:  10.3
      thresh= 9.182E-07 alpha_mix =  0.700 |ddv_scf|^2 =  5.146E-13

     End of self-consistent calculation

     Convergence has been achieved 


     Representation #  3 modes #   3  4

     Self-consistent Calculation

      iter #   1 total cpu time :    53.4 secs   av.it.:   5.2
      thresh= 1.000E-02 alpha_mix =  0.700 |ddv_scf|^2 =  1.446E-07

      iter #   2 total cpu time :    54.4 secs   av.it.:  11.5
      thresh= 3.803E-05 alpha_mix =  0.700 |ddv_scf|^2 =  1.992E-08

      iter #   3 total cpu time :    55.3 secs   av.it.:  11.1
      thresh= 1.411E-05 alpha_mix =  0.700 |ddv_scf|^2 =  3.355E-10

      iter #   4 total cpu time :    56.1 secs   av.it.:  10.8
      thresh= 1.832E-06 alpha_mix =  0.700 |ddv_scf|^2 =  7.771E-13

     End of self-consistent calculation

     Convergence has been achieved 


     Representation #  4 modes #   5  6

     Self-consistent Calculation

      iter #   1 total cpu time :    56.9 secs   av.it.:   5.3
      thresh= 1.000E-02 alpha_mix =  0.700 |ddv_scf|^2 =  1.326E-07

      iter #   2 total cpu time :    57.8 secs   av.it.:  11.4
      thresh= 3.642E-05 alpha_mix =  0.700 |ddv_scf|^2 =  1.777E-08

      iter #   3 total cpu time :    58.7 secs   av.it.:  11.2
      thresh= 1.333E-05 alpha_mix =  0.700 |ddv_scf|^2 =  3.439E-10

      iter #   4 total cpu time :    59.6 secs   av.it.:  11.0
      thresh= 1.855E-06 alpha_mix =  0.700 |ddv_scf|^2 =  8.389E-13

     End of self-consistent calculation

     Convergence has been achieved 

     Number of q in the star =    6
     List of q in the star:
          1   0.000000000   0.500000000   0.000000000
          2   0.000000000  -0.500000000   0.000000000
          3   0.500000000   0.000000000   0.000000000
          4   0.000000000   0.000000000   0.500000000
          5   0.000000000   0.000000000  -0.500000000
          6  -0.500000000   0.000000000   0.000000000

     Diagonalizing the dynamical matrix

     q = (    0.000000000   0.500000000   0.000000000 ) 

 **************************************************************************
     freq (    1) =       3.738883 [THz] =     124.715707 [cm-1]
     freq (    2) =       3.738883 [THz] =     124.715707 [cm-1]
     freq (    3) =       7.159576 [THz] =     238.817744 [cm-1]
     freq (    4) =      14.055521 [THz] =     468.841699 [cm-1]
     freq (    5) =      14.055521 [THz] =     468.841699 [cm-1]
     freq (    6) =      14.644623 [THz] =     488.492038 [cm-1]
 **************************************************************************

     Mode symmetry, C_4v (4mm)  point group:

     freq (  1 -  2) =        124.7  [cm-1]   --> E    G_5 D_5       
     freq (  3 -  3) =        238.8  [cm-1]   --> A_1  G_1 D_1       
     freq (  4 -  5) =        468.8  [cm-1]   --> E    G_5 D_5       
     freq (  6 -  6) =        488.5  [cm-1]   --> B_2  G_4 D_2'      

     Calculation of q =    0.7500000  -0.2500000   0.7500000

   Info: using nr1, nr2, nr3 values from input

   Info: using nr1, nr2, nr3 values from input

     Parallelization info
     --------------------
     sticks:   dense  smooth     PW     G-vecs:    dense   smooth      PW
     Min         217     108     40                 4240     1495     362
     Max         219     109     41                 4241     1498     366
     Sum         871     433    163                16961     5985    1459



     bravais-lattice index     =            2
     lattice parameter (alat)  =      10.2880  a.u.
     unit-cell volume          =     272.2281 (a.u.)^3
     number of atoms/cell      =            2
     number of atomic types    =            1
     number of electrons       =         8.00
     number of Kohn-Sham states=            4
     kinetic-energy cutoff     =      30.0000  Ry
     charge density cutoff     =     240.0000  Ry
     Exchange-correlation      = SLA  PW   PBE  PBE ( 1  4  3  4 0 0)

     celldm(1)=  10.288000  celldm(2)=   0.000000  celldm(3)=   0.000000
     celldm(4)=   0.000000  celldm(5)=   0.000000  celldm(6)=   0.000000

     crystal axes: (cart. coord. in units of alat)
               a(1) = (  -0.500000   0.000000   0.500000 )  
               a(2) = (   0.000000   0.500000   0.500000 )  
               a(3) = (  -0.500000   0.500000   0.000000 )  

     reciprocal axes: (cart. coord. in units 2 pi/alat)
               b(1) = ( -1.000000 -1.000000  1.000000 )  
               b(2) = (  1.000000  1.000000  1.000000 )  
               b(3) = ( -1.000000  1.000000 -1.000000 )  


     PseudoPot. # 1 for Si read from file:
     /home/s1333534/quantum_espresso/qe-6.1/pseudo/si_pbe_v1.uspp.F.UPF.txt
     MD5 check sum: a056efeee980c13900f22a371efd63c1
     Pseudo is Ultrasoft + core correction, Zval =  4.0
     Generated by new atomic code, or converted to UPF format
     Using radial grid of  899 points,  6 beta functions with: 
                l(1) =   0
                l(2) =   0
                l(3) =   1
                l(4) =   1
                l(5) =   2
                l(6) =   2
     Q(r) pseudized with  8 coefficients,  rinner =    0.900   0.900   0.900
                                                       0.900   0.900

     atomic species   valence    mass     pseudopotential
        Si             4.00    28.08600     Si( 1.00)

     48 Sym. Ops., with inversion, found



   Cartesian axes

     site n.     atom                  positions (alat units)
         1           Si  tau(   1) = (   0.0000000   0.0000000   0.0000000  )
         2           Si  tau(   2) = (   0.2500000   0.2500000   0.2500000  )

     number of k points=   288

     Number of k-points >= 100: set verbosity='high' to print them.

     Dense  grid:    16961 G-vectors     FFT dimensions: (  36,  36,  36)

     Smooth grid:     5985 G-vectors     FFT dimensions: (  25,  25,  25)

     Estimated max dynamical RAM per process >       1.51MB

     Estimated total allocated dynamical RAM >       6.02MB

     The potential is recalculated from file :
     ./_ph0/silicon.10.288.save/charge-density.dat

     Starting wfc are    8 atomic wfcs

     Band Structure Calculation
     Davidson diagonalization with overlap

     ethr =  1.25E-10,  avg # of iterations = 12.1

     total cpu time spent up to now is        6.7 secs

     End of band structure calculation

     Number of k-points >= 100: set verbosity='high' to print the bands.

     highest occupied level (ev):     5.8290

     Writing output data file silicon.10.288.save

                                                                                

     bravais-lattice index     =            2
     lattice parameter (alat)  =      10.2880  a.u.
     unit-cell volume          =     272.2281 (a.u.)^3
     number of atoms/cell      =            2
     number of atomic types    =            1
     kinetic-energy cut-off    =      30.0000  Ry
     charge density cut-off    =     240.0000  Ry
     convergence threshold     =      1.0E-12
     beta                      =       0.7000
     number of iterations used =            4
     Exchange-correlation      = SLA  PW   PBE  PBE ( 1  4  3  4 0 0)


     celldm(1)=   10.28800  celldm(2)=    0.00000  celldm(3)=    0.00000
     celldm(4)=    0.00000  celldm(5)=    0.00000  celldm(6)=    0.00000

     crystal axes: (cart. coord. in units of alat)
               a(1) = ( -0.5000  0.0000  0.5000 )  
               a(2) = (  0.0000  0.5000  0.5000 )  
               a(3) = ( -0.5000  0.5000  0.0000 )  

     reciprocal axes: (cart. coord. in units 2 pi/alat)
               b(1) = ( -1.0000 -1.0000  1.0000 )  
               b(2) = (  1.0000  1.0000  1.0000 )  
               b(3) = ( -1.0000  1.0000 -1.0000 )  


     Atoms inside the unit cell: 

     Cartesian axes

     site n.  atom      mass           positions (alat units)
        1     Si  28.0860   tau(    1) = (    0.00000    0.00000    0.00000  )
        2     Si  28.0860   tau(    2) = (    0.25000    0.25000    0.25000  )

     Computing dynamical matrix for 
                    q = (   0.7500000  -0.2500000   0.7500000 )

      2 Sym.Ops. (no q -> -q+G )


     G cutoff =  643.4479  (   4241 G-vectors)     FFT grid: ( 36, 36, 36)
     G cutoff =  321.7240  (   1497 G-vectors)  smooth grid: ( 25, 25, 25)
     number of k points=   288

     PseudoPot. # 1 for Si read from file:
     /home/s1333534/quantum_espresso/qe-6.1/pseudo/si_pbe_v1.uspp.F.UPF.txt
     MD5 check sum: a056efeee980c13900f22a371efd63c1
     Pseudo is Ultrasoft + core correction, Zval =  4.0
     Generated by new atomic code, or converted to UPF format
     Using radial grid of  899 points,  6 beta functions with: 
                l(1) =   0
                l(2) =   0
                l(3) =   1
                l(4) =   1
                l(5) =   2
                l(6) =   2
     Q(r) pseudized with  8 coefficients,  rinner =    0.900   0.900   0.900
                                                       0.900   0.900

     Mode symmetry, C_s (m)     point group:


     Atomic displacements:
     There are   6 irreducible representations

     Representation     1      1 modes -A'  To be done

     Representation     2      1 modes -A'  To be done

     Representation     3      1 modes -A'  To be done

     Representation     4      1 modes -A'  To be done

     Representation     5      1 modes -A''  To be done

     Representation     6      1 modes -A''  To be done



     Alpha used in Ewald sum =   2.5000
     PHONON       :  0m51.07s CPU     1m 4.75s WALL



     Representation #  1 mode #   1

     Self-consistent Calculation

      iter #   1 total cpu time :    65.7 secs   av.it.:   5.7
      thresh= 1.000E-02 alpha_mix =  0.700 |ddv_scf|^2 =  1.057E-05

      iter #   2 total cpu time :    67.0 secs   av.it.:  10.6
      thresh= 3.252E-04 alpha_mix =  0.700 |ddv_scf|^2 =  2.805E-05

      iter #   3 total cpu time :    68.3 secs   av.it.:   9.2
      thresh= 5.296E-04 alpha_mix =  0.700 |ddv_scf|^2 =  1.885E-07

      iter #   4 total cpu time :    69.5 secs   av.it.:   9.9
      thresh= 4.342E-05 alpha_mix =  0.700 |ddv_scf|^2 =  3.678E-09

      iter #   5 total cpu time :    70.8 secs   av.it.:  10.4
      thresh= 6.064E-06 alpha_mix =  0.700 |ddv_scf|^2 =  6.400E-10

      iter #   6 total cpu time :    72.2 secs   av.it.:  10.3
      thresh= 2.530E-06 alpha_mix =  0.700 |ddv_scf|^2 =  9.223E-12

      iter #   7 total cpu time :    73.5 secs   av.it.:  10.6
      thresh= 3.037E-07 alpha_mix =  0.700 |ddv_scf|^2 =  3.410E-13

     End of self-consistent calculation

     Convergence has been achieved 


     Representation #  2 mode #   2

     Self-consistent Calculation

      iter #   1 total cpu time :    74.5 secs   av.it.:   5.8
      thresh= 1.000E-02 alpha_mix =  0.700 |ddv_scf|^2 =  1.897E-05

      iter #   2 total cpu time :    75.9 secs   av.it.:  10.4
      thresh= 4.356E-04 alpha_mix =  0.700 |ddv_scf|^2 =  5.474E-05

      iter #   3 total cpu time :    77.1 secs   av.it.:   9.0
      thresh= 7.399E-04 alpha_mix =  0.700 |ddv_scf|^2 =  1.254E-07

      iter #   4 total cpu time :    78.5 secs   av.it.:  10.2
      thresh= 3.541E-05 alpha_mix =  0.700 |ddv_scf|^2 =  4.151E-09

      iter #   5 total cpu time :    79.8 secs   av.it.:  10.4
      thresh= 6.443E-06 alpha_mix =  0.700 |ddv_scf|^2 =  8.472E-10

      iter #   6 total cpu time :    81.1 secs   av.it.:  10.3
      thresh= 2.911E-06 alpha_mix =  0.700 |ddv_scf|^2 =  8.655E-12

      iter #   7 total cpu time :    82.4 secs   av.it.:  10.6
      thresh= 2.942E-07 alpha_mix =  0.700 |ddv_scf|^2 =  2.990E-13

     End of self-consistent calculation

     Convergence has been achieved 


     Representation #  3 mode #   3

     Self-consistent Calculation

      iter #   1 total cpu time :    83.4 secs   av.it.:   5.7
      thresh= 1.000E-02 alpha_mix =  0.700 |ddv_scf|^2 =  1.488E-05

      iter #   2 total cpu time :    84.7 secs   av.it.:  10.4
      thresh= 3.857E-04 alpha_mix =  0.700 |ddv_scf|^2 =  4.034E-05

      iter #   3 total cpu time :    85.9 secs   av.it.:   9.0
      thresh= 6.352E-04 alpha_mix =  0.700 |ddv_scf|^2 =  2.195E-07

      iter #   4 total cpu time :    87.1 secs   av.it.:  10.0
      thresh= 4.685E-05 alpha_mix =  0.700 |ddv_scf|^2 =  4.228E-09

      iter #   5 total cpu time :    88.4 secs   av.it.:  10.4
      thresh= 6.502E-06 alpha_mix =  0.700 |ddv_scf|^2 =  8.237E-10

      iter #   6 total cpu time :    89.7 secs   av.it.:  10.3
      thresh= 2.870E-06 alpha_mix =  0.700 |ddv_scf|^2 =  6.060E-12

      iter #   7 total cpu time :    91.0 secs   av.it.:  10.5
      thresh= 2.462E-07 alpha_mix =  0.700 |ddv_scf|^2 =  1.760E-13

     End of self-consistent calculation

     Convergence has been achieved 


     Representation #  4 mode #   4

     Self-consistent Calculation

      iter #   1 total cpu time :    92.0 secs   av.it.:   5.5
      thresh= 1.000E-02 alpha_mix =  0.700 |ddv_scf|^2 =  6.469E-06

      iter #   2 total cpu time :    93.3 secs   av.it.:  10.7
      thresh= 2.543E-04 alpha_mix =  0.700 |ddv_scf|^2 =  1.363E-05

      iter #   3 total cpu time :    94.6 secs   av.it.:   9.5
      thresh= 3.692E-04 alpha_mix =  0.700 |ddv_scf|^2 =  2.952E-07

      iter #   4 total cpu time :    95.9 secs   av.it.:   9.8
      thresh= 5.433E-05 alpha_mix =  0.700 |ddv_scf|^2 =  3.624E-09

      iter #   5 total cpu time :    97.2 secs   av.it.:  10.5
      thresh= 6.020E-06 alpha_mix =  0.700 |ddv_scf|^2 =  6.781E-10

      iter #   6 total cpu time :    98.5 secs   av.it.:  10.4
      thresh= 2.604E-06 alpha_mix =  0.700 |ddv_scf|^2 =  3.926E-12

      iter #   7 total cpu time :   100.0 secs   av.it.:  10.7
      thresh= 1.981E-07 alpha_mix =  0.700 |ddv_scf|^2 =  1.761E-13

     End of self-consistent calculation

     Convergence has been achieved 


     Representation #  5 mode #   5

     Self-consistent Calculation

      iter #   1 total cpu time :   101.1 secs   av.it.:   5.2
      thresh= 1.000E-02 alpha_mix =  0.700 |ddv_scf|^2 =  6.689E-07

      iter #   2 total cpu time :   102.3 secs   av.it.:  10.4
      thresh= 8.178E-05 alpha_mix =  0.700 |ddv_scf|^2 =  1.090E-07

      iter #   3 total cpu time :   103.6 secs   av.it.:  10.1
      thresh= 3.301E-05 alpha_mix =  0.700 |ddv_scf|^2 =  1.454E-09

      iter #   4 total cpu time :   104.9 secs   av.it.:   9.6
      thresh= 3.813E-06 alpha_mix =  0.700 |ddv_scf|^2 =  3.367E-12

      iter #   5 total cpu time :   106.1 secs   av.it.:  10.0
      thresh= 1.835E-07 alpha_mix =  0.700 |ddv_scf|^2 =  9.363E-14

     End of self-consistent calculation

     Convergence has been achieved 


     Representation #  6 mode #   6

     Self-consistent Calculation

      iter #   1 total cpu time :   107.1 secs   av.it.:   5.2
      thresh= 1.000E-02 alpha_mix =  0.700 |ddv_scf|^2 =  6.689E-07

      iter #   2 total cpu time :   108.4 secs   av.it.:  10.4
[...]
        k(   59) = (  -0.8750000   0.1250000  -0.1250000), wk =   0.0625000
        k(   60) = (  -1.3750000  -0.8750000  -0.1250000), wk =   0.0000000
        k(   61) = (  -1.1250000   0.3750000  -0.3750000), wk =   0.0625000
        k(   62) = (  -1.6250000  -0.6250000  -0.3750000), wk =   0.0000000
        k(   63) = (  -0.3750000   0.3750000   1.1250000), wk =   0.0625000
        k(   64) = (  -0.8750000  -0.6250000   1.1250000), wk =   0.0000000

     Dense  grid:    16961 G-vectors     FFT dimensions: (  36,  36,  36)

     Smooth grid:     5985 G-vectors     FFT dimensions: (  25,  25,  25)

     Estimated max dynamical RAM per process >       1.51MB

     Estimated total allocated dynamical RAM >       6.02MB

     The potential is recalculated from file :
     ./_ph0/silicon.10.288.save/charge-density.dat

     Starting wfc are    8 atomic wfcs

     Band Structure Calculation
     Davidson diagonalization with overlap

     ethr =  1.25E-10,  avg # of iterations = 12.1

     total cpu time spent up to now is       10.5 secs

     End of band structure calculation

          k =-0.1250 0.1250 0.1250 (   746 PWs)   bands (ev):

    -5.5892   4.5200   5.8290   5.8290

          k =-0.6250-0.8750 0.1250 (   751 PWs)   bands (ev):

    -2.3503  -0.7965   2.0900   3.1811

          k =-0.3750 0.3750-0.1250 (   757 PWs)   bands (ev):

    -4.5505   1.5062   3.8214   5.3457

          k =-0.8750-0.6250-0.1250 (   751 PWs)   bands (ev):

    -2.3503  -0.7965   2.0900   3.1811

          k = 0.3750-0.3750 0.6250 (   759 PWs)   bands (ev):

    -3.3936  -0.5993   3.8483   4.5640

          k =-0.1250-1.3750 0.6250 (   757 PWs)   bands (ev):

    -2.8926  -0.5009   2.1540   4.2426

          k = 0.1250-0.1250 0.3750 (   765 PWs)   bands (ev):

    -5.0554   2.8981   4.8079   4.8794

          k =-0.3750-1.1250 0.3750 (   757 PWs)   bands (ev):

    -2.8926  -0.5009   2.1540   4.2426

          k =-0.1250 0.6250 0.1250 (   760 PWs)   bands (ev):

    -4.0123   1.1836   3.4659   3.9243

          k =-0.6250-0.3750 0.1250 (   756 PWs)   bands (ev):

    -3.5905   0.2936   2.8189   4.2016

          k = 0.6250-0.1250 0.8750 (   751 PWs)   bands (ev):

    -2.3503  -0.7965   2.0900   3.1811

          k = 0.1250-1.1250 0.8750 (   757 PWs)   bands (ev):

    -2.5231  -0.6964   2.7088   3.4526

          k = 0.3750 0.1250 0.6250 (   756 PWs)   bands (ev):

    -3.5905   0.2936   2.8189   4.2016

          k =-0.1250-0.8750 0.6250 (   751 PWs)   bands (ev):

    -2.3503  -0.7965   2.0900   3.1811

          k =-0.1250-0.8750 0.1250 (   757 PWs)   bands (ev):

    -2.5231  -0.6964   2.7088   3.4526

          k =-0.6250-1.8750 0.1250 (   760 PWs)   bands (ev):

    -4.0123   1.1836   3.4659   3.9243

          k =-0.3750 0.3750 0.3750 (   763 PWs)   bands (ev):

    -4.1113   0.1967   5.0351   5.0351

          k =-0.8750-0.6250 0.3750 (   756 PWs)   bands (ev):

    -3.5905   0.2936   2.8189   4.2016

          k = 0.3750-0.3750 1.1250 (   757 PWs)   bands (ev):

    -2.8926  -0.5009   2.1540   4.2426

          k =-0.1250-1.3750 1.1250 (   751 PWs)   bands (ev):

    -2.3503  -0.7965   2.0900   3.1811

          k = 0.1250-0.3750 0.3750 (   757 PWs)   bands (ev):

    -4.5505   1.5062   3.8214   5.3457

          k =-0.3750-1.3750 0.3750 (   759 PWs)   bands (ev):

    -3.3936  -0.5993   3.8483   4.5640

          k = 0.3750-0.3750-0.1250 (   757 PWs)   bands (ev):

    -4.5505   1.5062   3.8214   5.3457

          k =-0.1250-1.3750-0.1250 (   760 PWs)   bands (ev):

    -4.0123   1.1836   3.4659   3.9243

          k =-0.6250 0.3750-0.3750 (   759 PWs)   bands (ev):

    -3.3936  -0.5993   3.8483   4.5640

          k =-1.1250-0.6250-0.3750 (   756 PWs)   bands (ev):

    -3.5905   0.2936   2.8189   4.2016

          k =-0.3750 0.3750 0.6250 (   759 PWs)   bands (ev):

    -3.3936  -0.5993   3.8483   4.5640

          k =-0.8750-0.6250 0.6250 (   757 PWs)   bands (ev):

    -4.5505   1.5062   3.8214   5.3457

          k =-0.3750 0.1250-0.1250 (   765 PWs)   bands (ev):

    -5.0554   2.8981   4.8079   4.8794

          k =-0.8750-0.8750-0.1250 (   757 PWs)   bands (ev):

    -2.5231  -0.6964   2.7088   3.4526

          k =-0.1250 0.1250 0.3750 (   765 PWs)   bands (ev):

    -5.0554   2.8981   4.8079   4.8794

          k =-0.6250-0.8750 0.3750 (   756 PWs)   bands (ev):

    -3.5905   0.2936   2.8189   4.2016

          k = 0.1250 0.6250-0.1250 (   760 PWs)   bands (ev):

    -4.0123   1.1836   3.4659   3.9243

          k =-0.3750-0.3750-0.1250 (   757 PWs)   bands (ev):

    -4.5505   1.5062   3.8214   5.3457

          k = 0.6250 0.1250-0.1250 (   760 PWs)   bands (ev):

    -4.0123   1.1836   3.4659   3.9243

          k = 0.1250-0.8750-0.1250 (   757 PWs)   bands (ev):

    -2.5231  -0.6964   2.7088   3.4526

          k =-0.8750 0.1250-0.6250 (   751 PWs)   bands (ev):

    -2.3503  -0.7965   2.0900   3.1811

          k =-1.3750-0.8750-0.6250 (   757 PWs)   bands (ev):

    -4.5505   1.5062   3.8214   5.3457

          k = 0.8750-0.1250 0.6250 (   751 PWs)   bands (ev):

    -2.3503  -0.7965   2.0900   3.1811

          k = 0.3750-1.1250 0.6250 (   756 PWs)   bands (ev):

    -3.5905   0.2936   2.8189   4.2016

          k =-0.6250 0.1250 0.8750 (   751 PWs)   bands (ev):

    -2.3503  -0.7965   2.0900   3.1811

          k =-1.1250-0.8750 0.8750 (   746 PWs)   bands (ev):

    -5.5892   4.5200   5.8290   5.8290

          k =-0.1250 0.8750 0.6250 (   751 PWs)   bands (ev):

    -2.3503  -0.7965   2.0900   3.1811

          k =-0.6250-0.1250 0.6250 (   757 PWs)   bands (ev):

    -2.8926  -0.5009   2.1540   4.2426

          k = 0.1250 0.8750-0.6250 (   751 PWs)   bands (ev):

    -2.3503  -0.7965   2.0900   3.1811

          k =-0.3750-0.1250-0.6250 (   756 PWs)   bands (ev):

    -3.5905   0.2936   2.8189   4.2016

          k =-0.6250-0.1250-0.3750 (   756 PWs)   bands (ev):

    -3.5905   0.2936   2.8189   4.2016

          k =-1.1250-1.1250-0.3750 (   760 PWs)   bands (ev):

    -4.0123   1.1836   3.4659   3.9243

          k = 0.6250 0.1250 0.3750 (   756 PWs)   bands (ev):

    -3.5905   0.2936   2.8189   4.2016

          k = 0.1250-0.8750 0.3750 (   751 PWs)   bands (ev):

    -2.3503  -0.7965   2.0900   3.1811

          k =-0.3750-0.1250 0.6250 (   756 PWs)   bands (ev):

    -3.5905   0.2936   2.8189   4.2016

          k =-0.8750-1.1250 0.6250 (   765 PWs)   bands (ev):

    -5.0554   2.8981   4.8079   4.8794

          k = 0.1250 0.6250 0.3750 (   756 PWs)   bands (ev):

    -3.5905   0.2936   2.8189   4.2016

          k =-0.3750-0.3750 0.3750 (   763 PWs)   bands (ev):

    -4.1113   0.1967   5.0351   5.0351

          k =-0.1250 0.6250-0.3750 (   756 PWs)   bands (ev):

    -3.5905   0.2936   2.8189   4.2016

          k =-0.6250-0.3750-0.3750 (   759 PWs)   bands (ev):

    -3.3936  -0.5993   3.8483   4.5640

          k = 0.1250-0.8750-0.1250 (   757 PWs)   bands (ev):

    -2.5231  -0.6964   2.7088   3.4526

          k =-0.3750-1.8750-0.1250 (   765 PWs)   bands (ev):

    -5.0554   2.8981   4.8079   4.8794

          k =-0.8750 0.1250-0.1250 (   757 PWs)   bands (ev):

    -2.5231  -0.6964   2.7088   3.4526

          k =-1.3750-0.8750-0.1250 (   751 PWs)   bands (ev):

    -2.3503  -0.7965   2.0900   3.1811

          k =-1.1250 0.3750-0.3750 (   757 PWs)   bands (ev):

    -2.8926  -0.5009   2.1540   4.2426

          k =-1.6250-0.6250-0.3750 (   759 PWs)   bands (ev):

    -3.3936  -0.5993   3.8483   4.5640

          k =-0.3750 0.3750 1.1250 (   757 PWs)   bands (ev):

    -2.8926  -0.5009   2.1540   4.2426

          k =-0.8750-0.6250 1.1250 (   765 PWs)   bands (ev):

    -5.0554   2.8981   4.8079   4.8794

     highest occupied level (ev):     5.8290

     Writing output data file silicon.10.288.save

                                                                                

     bravais-lattice index     =            2
     lattice parameter (alat)  =      10.2880  a.u.
     unit-cell volume          =     272.2281 (a.u.)^3
     number of atoms/cell      =            2
     number of atomic types    =            1
     kinetic-energy cut-off    =      30.0000  Ry
     charge density cut-off    =     240.0000  Ry
     convergence threshold     =      1.0E-12
     beta                      =       0.7000
     number of iterations used =            4
     Exchange-correlation      = SLA  PW   PBE  PBE ( 1  4  3  4 0 0)


     celldm(1)=   10.28800  celldm(2)=    0.00000  celldm(3)=    0.00000
     celldm(4)=    0.00000  celldm(5)=    0.00000  celldm(6)=    0.00000

     crystal axes: (cart. coord. in units of alat)
               a(1) = ( -0.5000  0.0000  0.5000 )  
               a(2) = (  0.0000  0.5000  0.5000 )  
               a(3) = ( -0.5000  0.5000  0.0000 )  

     reciprocal axes: (cart. coord. in units 2 pi/alat)
               b(1) = ( -1.0000 -1.0000  1.0000 )  
               b(2) = (  1.0000  1.0000  1.0000 )  
               b(3) = ( -1.0000  1.0000 -1.0000 )  


     Atoms inside the unit cell: 

     Cartesian axes

     site n.  atom      mass           positions (alat units)
        1     Si  28.0860   tau(    1) = (    0.00000    0.00000    0.00000  )
        2     Si  28.0860   tau(    2) = (    0.25000    0.25000    0.25000  )

     Computing dynamical matrix for 
                    q = (  -0.5000000  -1.0000000   0.0000000 )

      8 Sym.Ops. (no q -> -q+G )


     G cutoff =  643.4479  (   4241 G-vectors)     FFT grid: ( 36, 36, 36)
     G cutoff =  321.7240  (   1497 G-vectors)  smooth grid: ( 25, 25, 25)
     number of k points=    64

     PseudoPot. # 1 for Si read from file:
     /home/s1333534/quantum_espresso/qe-6.1/pseudo/si_pbe_v1.uspp.F.UPF.txt
     MD5 check sum: a056efeee980c13900f22a371efd63c1
     Pseudo is Ultrasoft + core correction, Zval =  4.0
     Generated by new atomic code, or converted to UPF format
     Using radial grid of  899 points,  6 beta functions with: 
                l(1) =   0
                l(2) =   0
                l(3) =   1
                l(4) =   1
                l(5) =   2
                l(6) =   2
     Q(r) pseudized with  8 coefficients,  rinner =    0.900   0.900   0.900
                                                       0.900   0.900


     Atomic displacements:
     There are   3 irreducible representations

     Representation     1      2 modes -  To be done

     Representation     2      2 modes -  To be done

     Representation     3      2 modes -  To be done



     Alpha used in Ewald sum =   2.5000
     PHONON       :  2m 2.88s CPU     2m32.36s WALL



     Representation #  1 modes #   1  2

     Self-consistent Calculation

      iter #   1 total cpu time :   153.1 secs   av.it.:   5.7
      thresh= 1.000E-02 alpha_mix =  0.700 |ddv_scf|^2 =  1.096E-06

      iter #   2 total cpu time :   153.9 secs   av.it.:  11.6
      thresh= 1.047E-04 alpha_mix =  0.700 |ddv_scf|^2 =  6.217E-07

      iter #   3 total cpu time :   154.6 secs   av.it.:  11.1
      thresh= 7.885E-05 alpha_mix =  0.700 |ddv_scf|^2 =  5.922E-10

      iter #   4 total cpu time :   155.4 secs   av.it.:  11.0
      thresh= 2.434E-06 alpha_mix =  0.700 |ddv_scf|^2 =  2.606E-12

      iter #   5 total cpu time :   156.2 secs   av.it.:  11.1
      thresh= 1.614E-07 alpha_mix =  0.700 |ddv_scf|^2 =  6.914E-14

     End of self-consistent calculation

     Convergence has been achieved 


     Representation #  2 modes #   3  4

     Self-consistent Calculation

      iter #   1 total cpu time :   156.8 secs   av.it.:   5.6
      thresh= 1.000E-02 alpha_mix =  0.700 |ddv_scf|^2 =  1.692E-06

      iter #   2 total cpu time :   157.6 secs   av.it.:  11.6
      thresh= 1.301E-04 alpha_mix =  0.700 |ddv_scf|^2 =  2.266E-06

      iter #   3 total cpu time :   158.4 secs   av.it.:  10.9
      thresh= 1.505E-04 alpha_mix =  0.700 |ddv_scf|^2 =  6.960E-10

      iter #   4 total cpu time :   159.2 secs   av.it.:  11.0
      thresh= 2.638E-06 alpha_mix =  0.700 |ddv_scf|^2 =  1.002E-11

      iter #   5 total cpu time :   159.9 secs   av.it.:  11.1
      thresh= 3.165E-07 alpha_mix =  0.700 |ddv_scf|^2 =  1.728E-13

     End of self-consistent calculation

     Convergence has been achieved 


     Representation #  3 modes #   5  6

     Self-consistent Calculation

      iter #   1 total cpu time :   160.6 secs   av.it.:   5.3
      thresh= 1.000E-02 alpha_mix =  0.700 |ddv_scf|^2 =  4.451E-07

      iter #   2 total cpu time :   161.4 secs   av.it.:  11.6
      thresh= 6.671E-05 alpha_mix =  0.700 |ddv_scf|^2 =  2.604E-07

      iter #   3 total cpu time :   162.2 secs   av.it.:  11.1
      thresh= 5.103E-05 alpha_mix =  0.700 |ddv_scf|^2 =  5.163E-10

      iter #   4 total cpu time :   163.0 secs   av.it.:  11.0
      thresh= 2.272E-06 alpha_mix =  0.700 |ddv_scf|^2 =  5.950E-12

      iter #   5 total cpu time :   163.7 secs   av.it.:  11.1
      thresh= 2.439E-07 alpha_mix =  0.700 |ddv_scf|^2 =  8.325E-14

     End of self-consistent calculation

     Convergence has been achieved 

     Number of q in the star =    6
     List of q in the star:
          1  -0.500000000  -1.000000000   0.000000000
          2   0.000000000   1.000000000   0.500000000
          3   0.000000000  -1.000000000  -0.500000000
          4   0.500000000   1.000000000   0.000000000
          5  -1.000000000  -0.500000000   0.000000000
          6   0.000000000  -0.500000000  -1.000000000

     Diagonalizing the dynamical matrix

     q = (   -0.500000000  -1.000000000   0.000000000 ) 

 **************************************************************************
     freq (    1) =       5.981375 [THz] =     199.517198 [cm-1]
     freq (    2) =       5.981375 [THz] =     199.517198 [cm-1]
     freq (    3) =      10.485261 [THz] =     349.750647 [cm-1]
     freq (    4) =      10.485261 [THz] =     349.750647 [cm-1]
     freq (    5) =      13.824307 [THz] =     461.129245 [cm-1]
     freq (    6) =      13.824307 [THz] =     461.129245 [cm-1]
 **************************************************************************

     init_run     :      1.21s CPU      1.28s WALL (       7 calls)
     electrons    :      7.23s CPU      7.79s WALL (       7 calls)

     Called by init_run:
     wfcinit      :      0.00s CPU      0.02s WALL (       7 calls)
     potinit      :      0.07s CPU      0.09s WALL (       7 calls)

     Called by electrons:
     c_bands      :      7.23s CPU      7.79s WALL (       7 calls)
     v_of_rho     :      0.06s CPU      0.07s WALL (       8 calls)
     newd         :      0.12s CPU      0.12s WALL (       8 calls)

     Called by c_bands:
     init_us_2    :      1.64s CPU      1.58s WALL (   16040 calls)
     cegterg      :      6.03s CPU      6.49s WALL (     796 calls)

     Called by sum_band:

     Called by *egterg:
     h_psi        :     68.89s CPU     73.80s WALL (  154446 calls)
     s_psi        :      5.76s CPU      6.98s WALL (  311294 calls)
     g_psi        :      0.05s CPU      0.07s WALL (    9666 calls)
     cdiaghg      :      0.55s CPU      0.56s WALL (   10462 calls)

     Called by h_psi:
     h_psi:pot    :     68.49s CPU     73.30s WALL (  154446 calls)
     h_psi:calbec :      3.40s CPU      3.96s WALL (  154446 calls)
     vloc_psi     :     60.39s CPU     65.17s WALL (  154446 calls)
     add_vuspsi   :      4.35s CPU      3.69s WALL (  154446 calls)

     General routines
     calbec       :      7.92s CPU      8.40s WALL (  345746 calls)
     fft          :      1.40s CPU      1.47s WALL (    5265 calls)
     ffts         :      0.21s CPU      0.24s WALL (    3320 calls)
     fftw         :     63.58s CPU     67.84s WALL ( 1383506 calls)
     interpolate  :      0.24s CPU      0.26s WALL (     572 calls)
     davcio       :      0.32s CPU      1.02s WALL (   69876 calls)

     Parallel routines
     fft_scatter  :     16.43s CPU     19.79s WALL ( 1392091 calls)

     PHONON       :  2m12.08s CPU     2m44.11s WALL

     INITIALIZATION: 
     phq_setup    :      0.22s CPU      0.45s WALL (       8 calls)
     phq_init     :      6.75s CPU      7.06s WALL (       8 calls)

     phq_init     :      6.75s CPU      7.06s WALL (       8 calls)
     set_drhoc    :      1.80s CPU      1.80s WALL (      24 calls)
     init_vloc    :      0.03s CPU      0.03s WALL (       8 calls)
     init_us_1    :      0.95s CPU      0.96s WALL (       8 calls)
     newd         :      0.12s CPU      0.12s WALL (       8 calls)
     dvanqq       :      1.16s CPU      1.17s WALL (       8 calls)
     drho         :      2.57s CPU      2.66s WALL (       8 calls)

     DYNAMICAL MATRIX:
     dynmat0      :      1.69s CPU      1.80s WALL (       8 calls)
     phqscf       :    111.90s CPU    138.20s WALL (       8 calls)
     dynmatrix    :      0.02s CPU      0.24s WALL (       8 calls)

     phqscf       :    111.90s CPU    138.20s WALL (       8 calls)
     solve_linter :    111.01s CPU    135.59s WALL (      32 calls)
     drhodv       :      0.59s CPU      0.61s WALL (      32 calls)

     dynmat0      :      1.69s CPU      1.80s WALL (       8 calls)
     dynmat_us    :      0.38s CPU      0.39s WALL (       8 calls)
     d2ionq       :      0.04s CPU      0.04s WALL (       8 calls)
     dynmatcc     :      1.26s CPU      1.27s WALL (       8 calls)

     dynmat_us    :      0.38s CPU      0.39s WALL (       8 calls)
     addusdynmat  :      0.00s CPU      0.00s WALL (       8 calls)

     phqscf       :    111.90s CPU    138.20s WALL (       8 calls)
     solve_linter :    111.01s CPU    135.59s WALL (      32 calls)

     solve_linter :    111.01s CPU    135.59s WALL (      32 calls)
     dvqpsi_us    :      2.13s CPU      2.26s WALL (    2508 calls)
     ortho        :      0.96s CPU      1.08s WALL (   13630 calls)
     cgsolve      :     76.40s CPU     83.07s WALL (   13630 calls)
     incdrhoscf   :      6.32s CPU      6.91s WALL (   13630 calls)
     addusddens   :      6.98s CPU      7.01s WALL (     202 calls)
     vpsifft      :      4.52s CPU      4.97s WALL (   11002 calls)
     dv_of_drho   :      1.24s CPU      1.29s WALL (     256 calls)
     mix_pot      :      0.35s CPU      8.75s WALL (     175 calls)
     psymdvscf    :      4.13s CPU      4.18s WALL (     170 calls)
     newdq        :      7.59s CPU      7.64s WALL (     175 calls)
     adddvscf     :      0.46s CPU      0.44s WALL (   11122 calls)
     drhodvus     :      0.02s CPU      0.02s WALL (      32 calls)

     dvqpsi_us    :      2.13s CPU      2.26s WALL (    2508 calls)
     dvqpsi_us_on :      0.91s CPU      0.94s WALL (    2508 calls)

     cgsolve      :     76.40s CPU     83.07s WALL (   13630 calls)
     ch_psi       :     75.28s CPU     81.31s WALL (  143188 calls)

     ch_psi       :     75.28s CPU     81.31s WALL (  143188 calls)
     h_psi        :     68.89s CPU     73.80s WALL (  154446 calls)
     last         :      8.99s CPU      9.11s WALL (  143188 calls)

     h_psi        :     68.89s CPU     73.80s WALL (  154446 calls)
     add_vuspsi   :      4.35s CPU      3.69s WALL (  154446 calls)

     incdrhoscf   :      6.32s CPU      6.91s WALL (   13630 calls)
     addusdbec    :      0.47s CPU      0.52s WALL (   16078 calls)

     drhodvus     :      0.02s CPU      0.02s WALL (      32 calls)

      General routines
     calbec       :      7.92s CPU      8.40s WALL (  345746 calls)
     fft          :      1.40s CPU      1.47s WALL (    5265 calls)
     ffts         :      0.21s CPU      0.24s WALL (    3320 calls)
     fftw         :     63.58s CPU     67.84s WALL ( 1383506 calls)
     davcio       :      0.32s CPU      1.02s WALL (   69876 calls)
     write_rec    :      0.23s CPU     10.04s WALL (     207 calls)


     PHONON       :  2m12.08s CPU     2m44.11s WALL


   This run was terminated on:  15:44:58  10Nov2017            

=------------------------------------------------------------------------------=
   JOB DONE.
=------------------------------------------------------------------------------=
