
     Program PHONON v.6.1 (svn rev. 13369) starts on  9Nov2017 at  1:46:42 

     This program is part of the open-source Quantum ESPRESSO suite
     for quantum simulation of materials; please cite
         "P. Giannozzi et al., J. Phys.:Condens. Matter 21 395502 (2009);
          URL http://www.quantum-espresso.org", 
     in publications or presentations arising from this work. More details at
     http://www.quantum-espresso.org/quote

     Parallel version (MPI), running on     4 processors
     R & G space division:  proc/nbgrp/npool/nimage =       4

     Reading data from directory:
     ./silicon.10.49.save

   Info: using nr1, nr2, nr3 values from input

   Info: using nr1, nr2, nr3 values from input

     IMPORTANT: XC functional enforced from input :
     Exchange-correlation      = SLA  PW   PBE  PBE ( 1  4  3  4 0 0)
     Any further DFT definition will be discarded
     Please, verify this is what you really want


     Parallelization info
     --------------------
     sticks:   dense  smooth     PW     G-vecs:    dense   smooth      PW
     Min          67      67     22                  743      743     152
     Max          68      68     23                  744      744     153
     Sum         271     271     91                 2975     2975     609


     Check: negative/imaginary core charge=   -0.000006    0.000000


     Dynamical matrices for ( 4, 4, 4)  uniform grid of q-points
     (   8q-points):
       N         xq(1)         xq(2)         xq(3) 
       1   0.000000000   0.000000000   0.000000000
       2  -0.250000000   0.250000000  -0.250000000
       3   0.500000000  -0.500000000   0.500000000
       4   0.000000000   0.500000000   0.000000000
       5   0.750000000  -0.250000000   0.750000000
       6   0.500000000   0.000000000   0.500000000
       7   0.000000000  -1.000000000   0.000000000
       8  -0.500000000  -1.000000000   0.000000000

     Calculation of q =    0.0000000   0.0000000   0.0000000

                                                                                

     bravais-lattice index     =            2
     lattice parameter (alat)  =      10.4900  a.u.
     unit-cell volume          =     288.5802 (a.u.)^3
     number of atoms/cell      =            2
     number of atomic types    =            1
     kinetic-energy cut-off    =      18.0000  Ry
     charge density cut-off    =      72.0000  Ry
     convergence threshold     =      1.0E-12
     beta                      =       0.7000
     number of iterations used =            4
     Exchange-correlation      = SLA  PW   PBE  PBE ( 1  4  3  4 0 0)


     celldm(1)=   10.49000  celldm(2)=    0.00000  celldm(3)=    0.00000
     celldm(4)=    0.00000  celldm(5)=    0.00000  celldm(6)=    0.00000

     crystal axes: (cart. coord. in units of alat)
               a(1) = ( -0.5000  0.0000  0.5000 )  
               a(2) = (  0.0000  0.5000  0.5000 )  
               a(3) = ( -0.5000  0.5000  0.0000 )  

     reciprocal axes: (cart. coord. in units 2 pi/alat)
               b(1) = ( -1.0000 -1.0000  1.0000 )  
               b(2) = (  1.0000  1.0000  1.0000 )  
               b(3) = ( -1.0000  1.0000 -1.0000 )  


     Atoms inside the unit cell: 

     Cartesian axes

     site n.  atom      mass           positions (alat units)
        1     Si  28.0860   tau(    1) = (    0.00000    0.00000    0.00000  )
        2     Si  28.0860   tau(    2) = (    0.25000    0.25000    0.25000  )

     Computing dynamical matrix for 
                    q = (   0.0000000   0.0000000   0.0000000 )

     49 Sym.Ops. (with q -> -q+G )


     G cutoff =  200.6891  (    744 G-vectors)     FFT grid: ( 24, 24, 24)
     number of k points=    10

     PseudoPot. # 1 for Si read from file:
     /home/max/quantum_espresso/qe-6.1/pseudo/si_pbe_v1.uspp.F.UPF.txt
     MD5 check sum: a056efeee980c13900f22a371efd63c1
     Pseudo is Ultrasoft + core correction, Zval =  4.0
     Generated by new atomic code, or converted to UPF format
     Using radial grid of  899 points,  6 beta functions with: 
                l(1) =   0
                l(2) =   0
                l(3) =   1
                l(4) =   1
                l(5) =   2
                l(6) =   2
     Q(r) pseudized with  8 coefficients,  rinner =    0.900   0.900   0.900
                                                       0.900   0.900

     Mode symmetry, O_h (m-3m)  point group:


     Electric field:
     Dielectric constant
     Born effective charges in two ways 


     Atomic displacements:
     There are   2 irreducible representations

     Representation     1      3 modes -T_2g G_25' G_5+  To be done

     Representation     2      3 modes -T_1u G_15  G_4-  To be done



     Alpha used in Ewald sum =   0.7000
     PHONON       :     0.42s CPU         0.43s WALL


     Electric Fields Calculation

      iter #   1 total cpu time :     0.9 secs   av.it.:   5.6
      thresh= 1.000E-02 alpha_mix =  0.700 |ddv_scf|^2 =  5.728E-07

      iter #   2 total cpu time :     1.1 secs   av.it.:  10.1
      thresh= 7.568E-05 alpha_mix =  0.700 |ddv_scf|^2 =  3.946E-08

      iter #   3 total cpu time :     1.4 secs   av.it.:   9.9
      thresh= 1.987E-05 alpha_mix =  0.700 |ddv_scf|^2 =  3.185E-09

      iter #   4 total cpu time :     1.6 secs   av.it.:   9.3
      thresh= 5.643E-06 alpha_mix =  0.700 |ddv_scf|^2 =  2.316E-11

      iter #   5 total cpu time :     2.0 secs   av.it.:   9.4
      thresh= 4.813E-07 alpha_mix =  0.700 |ddv_scf|^2 =  1.207E-14

     End of electric fields calculation

          Dielectric constant in cartesian axis 

          (      14.246227208      -0.000000000       0.000000000 )
          (      -0.000000000      14.246227208      -0.000000000 )
          (       0.000000000      -0.000000000      14.246227208 )

          Effective charges (d Force / dE) in cartesian axis

           atom      1   Si 
      Ex  (       -0.02793        0.00000        0.00000 )
      Ey  (        0.00000       -0.02793       -0.00000 )
      Ez  (        0.00000       -0.00000       -0.02793 )
           atom      2   Si 
      Ex  (       -0.02793       -0.00000       -0.00000 )
      Ey  (       -0.00000       -0.02793        0.00000 )
      Ez  (       -0.00000        0.00000       -0.02793 )


     Representation #  1 modes #   1  2  3

     Self-consistent Calculation

      iter #   1 total cpu time :     2.5 secs   av.it.:   4.9
      thresh= 1.000E-02 alpha_mix =  0.700 |ddv_scf|^2 =  1.208E-07

      iter #   2 total cpu time :     2.7 secs   av.it.:  10.1
      thresh= 3.475E-05 alpha_mix =  0.700 |ddv_scf|^2 =  7.076E-09

      iter #   3 total cpu time :     3.0 secs   av.it.:   9.9
      thresh= 8.412E-06 alpha_mix =  0.700 |ddv_scf|^2 =  4.711E-10

      iter #   4 total cpu time :     3.2 secs   av.it.:   9.3
      thresh= 2.171E-06 alpha_mix =  0.700 |ddv_scf|^2 =  1.096E-12

      iter #   5 total cpu time :     3.4 secs   av.it.:   9.8
      thresh= 1.047E-07 alpha_mix =  0.700 |ddv_scf|^2 =  7.189E-15

     End of self-consistent calculation

     Convergence has been achieved 


     Representation #  2 modes #   4  5  6

     Self-consistent Calculation

      iter #   1 total cpu time :     3.8 secs   av.it.:   5.0
      thresh= 1.000E-02 alpha_mix =  0.700 |ddv_scf|^2 =  1.142E-07

      iter #   2 total cpu time :     4.1 secs   av.it.:   9.8
      thresh= 3.380E-05 alpha_mix =  0.700 |ddv_scf|^2 =  9.491E-09

      iter #   3 total cpu time :     4.3 secs   av.it.:   9.6
      thresh= 9.742E-06 alpha_mix =  0.700 |ddv_scf|^2 =  5.724E-10

      iter #   4 total cpu time :     4.6 secs   av.it.:   9.8
      thresh= 2.393E-06 alpha_mix =  0.700 |ddv_scf|^2 =  3.334E-12

      iter #   5 total cpu time :     4.8 secs   av.it.:   9.4
      thresh= 1.826E-07 alpha_mix =  0.700 |ddv_scf|^2 =  3.683E-15

     End of self-consistent calculation

     Convergence has been achieved 

     Number of q in the star =    1
     List of q in the star:
          1   0.000000000   0.000000000   0.000000000

          Dielectric constant in cartesian axis 

          (      14.246227208      -0.000000000       0.000000000 )
          (      -0.000000000      14.246227208      -0.000000000 )
          (       0.000000000      -0.000000000      14.246227208 )

          Effective charges (d Force / dE) in cartesian axis

           atom      1   Si 
      Ex  (       -0.02793        0.00000        0.00000 )
      Ey  (        0.00000       -0.02793       -0.00000 )
      Ez  (        0.00000       -0.00000       -0.02793 )
           atom      2   Si 
      Ex  (       -0.02793       -0.00000       -0.00000 )
      Ey  (       -0.00000       -0.02793        0.00000 )
      Ez  (       -0.00000        0.00000       -0.02793 )

          Effective charges (d P / du) in cartesian axis 

           atom      1   Si 
      Px  (       -0.07012       -0.00000        0.00000 )
      Py  (        0.00000       -0.07012       -0.00000 )
      Pz  (        0.00000       -0.00000       -0.07012 )
           atom      2   Si 
      Px  (       -0.07012        0.00000        0.00000 )
      Py  (        0.00000       -0.07012       -0.00000 )
      Pz  (        0.00000       -0.00000       -0.07012 )

     Diagonalizing the dynamical matrix

     q = (    0.000000000   0.000000000   0.000000000 ) 

 **************************************************************************
     freq (    1) =       0.693667 [THz] =      23.138254 [cm-1]
     freq (    2) =       0.693667 [THz] =      23.138254 [cm-1]
     freq (    3) =       0.693667 [THz] =      23.138254 [cm-1]
     freq (    4) =      14.863032 [THz] =     495.777367 [cm-1]
     freq (    5) =      14.863032 [THz] =     495.777367 [cm-1]
     freq (    6) =      14.863032 [THz] =     495.777367 [cm-1]
 **************************************************************************

     Mode symmetry, O_h (m-3m)  point group:

     freq (  1 -  3) =         23.1  [cm-1]   --> T_1u G_15  G_4- I  
     freq (  4 -  6) =        495.8  [cm-1]   --> T_2g G_25' G_5+ R  

     Calculation of q =   -0.2500000   0.2500000  -0.2500000

   Info: using nr1, nr2, nr3 values from input

   Info: using nr1, nr2, nr3 values from input

     Parallelization info
     --------------------
     sticks:   dense  smooth     PW     G-vecs:    dense   smooth      PW
     Min          67      67     27                  743      743     181
     Max          69      69     28                  744      744     182
     Sum         271     271    109                 2975     2975     725



     bravais-lattice index     =            2
     lattice parameter (alat)  =      10.4900  a.u.
     unit-cell volume          =     288.5802 (a.u.)^3
     number of atoms/cell      =            2
     number of atomic types    =            1
     number of electrons       =         8.00
     number of Kohn-Sham states=            4
     kinetic-energy cutoff     =      18.0000  Ry
     charge density cutoff     =      72.0000  Ry
     Exchange-correlation      = SLA  PW   PBE  PBE ( 1  4  3  4 0 0)

     celldm(1)=  10.490000  celldm(2)=   0.000000  celldm(3)=   0.000000
     celldm(4)=   0.000000  celldm(5)=   0.000000  celldm(6)=   0.000000

     crystal axes: (cart. coord. in units of alat)
               a(1) = (  -0.500000   0.000000   0.500000 )  
               a(2) = (   0.000000   0.500000   0.500000 )  
               a(3) = (  -0.500000   0.500000   0.000000 )  

     reciprocal axes: (cart. coord. in units 2 pi/alat)
               b(1) = ( -1.000000 -1.000000  1.000000 )  
               b(2) = (  1.000000  1.000000  1.000000 )  
               b(3) = ( -1.000000  1.000000 -1.000000 )  


     PseudoPot. # 1 for Si read from file:
     /home/max/quantum_espresso/qe-6.1/pseudo/si_pbe_v1.uspp.F.UPF.txt
     MD5 check sum: a056efeee980c13900f22a371efd63c1
     Pseudo is Ultrasoft + core correction, Zval =  4.0
     Generated by new atomic code, or converted to UPF format
     Using radial grid of  899 points,  6 beta functions with: 
                l(1) =   0
                l(2) =   0
                l(3) =   1
                l(4) =   1
                l(5) =   2
                l(6) =   2
     Q(r) pseudized with  8 coefficients,  rinner =    0.900   0.900   0.900
                                                       0.900   0.900

     atomic species   valence    mass     pseudopotential
        Si             4.00    28.08600     Si( 1.00)

     48 Sym. Ops., with inversion, found



   Cartesian axes

     site n.     atom                  positions (alat units)
         1           Si  tau(   1) = (   0.0000000   0.0000000   0.0000000  )
         2           Si  tau(   2) = (   0.2500000   0.2500000   0.2500000  )

     number of k points=   120

     Number of k-points >= 100: set verbosity='high' to print them.

     Dense  grid:     2975 G-vectors     FFT dimensions: (  24,  24,  24)

     Estimated max dynamical RAM per process >       0.43MB

     Estimated total allocated dynamical RAM >       1.71MB

     Check: negative/imaginary core charge=   -0.000006    0.000000

     The potential is recalculated from file :
     ./_ph0/silicon.10.49.save/charge-density.dat

     Starting wfc are    8 atomic wfcs

     Band Structure Calculation
     Davidson diagonalization with overlap

     ethr =  1.25E-10,  avg # of iterations = 11.7

     total cpu time spent up to now is        1.1 secs

     End of band structure calculation

     Number of k-points >= 100: set verbosity='high' to print the bands.

     highest occupied level (ev):     5.2617

     Writing output data file silicon.10.49.save

                                                                                

     bravais-lattice index     =            2
     lattice parameter (alat)  =      10.4900  a.u.
     unit-cell volume          =     288.5802 (a.u.)^3
     number of atoms/cell      =            2
     number of atomic types    =            1
     kinetic-energy cut-off    =      18.0000  Ry
     charge density cut-off    =      72.0000  Ry
     convergence threshold     =      1.0E-12
     beta                      =       0.7000
     number of iterations used =            4
     Exchange-correlation      = SLA  PW   PBE  PBE ( 1  4  3  4 0 0)


     celldm(1)=   10.49000  celldm(2)=    0.00000  celldm(3)=    0.00000
     celldm(4)=    0.00000  celldm(5)=    0.00000  celldm(6)=    0.00000

     crystal axes: (cart. coord. in units of alat)
               a(1) = ( -0.5000  0.0000  0.5000 )  
               a(2) = (  0.0000  0.5000  0.5000 )  
               a(3) = ( -0.5000  0.5000  0.0000 )  

     reciprocal axes: (cart. coord. in units 2 pi/alat)
               b(1) = ( -1.0000 -1.0000  1.0000 )  
               b(2) = (  1.0000  1.0000  1.0000 )  
               b(3) = ( -1.0000  1.0000 -1.0000 )  


     Atoms inside the unit cell: 

     Cartesian axes

     site n.  atom      mass           positions (alat units)
        1     Si  28.0860   tau(    1) = (    0.00000    0.00000    0.00000  )
        2     Si  28.0860   tau(    2) = (    0.25000    0.25000    0.25000  )

     Computing dynamical matrix for 
                    q = (  -0.2500000   0.2500000  -0.2500000 )

      6 Sym.Ops. (no q -> -q+G )


     G cutoff =  200.6891  (    744 G-vectors)     FFT grid: ( 24, 24, 24)
     number of k points=   120

     PseudoPot. # 1 for Si read from file:
     /home/max/quantum_espresso/qe-6.1/pseudo/si_pbe_v1.uspp.F.UPF.txt
     MD5 check sum: a056efeee980c13900f22a371efd63c1
     Pseudo is Ultrasoft + core correction, Zval =  4.0
     Generated by new atomic code, or converted to UPF format
     Using radial grid of  899 points,  6 beta functions with: 
                l(1) =   0
                l(2) =   0
                l(3) =   1
                l(4) =   1
                l(5) =   2
                l(6) =   2
     Q(r) pseudized with  8 coefficients,  rinner =    0.900   0.900   0.900
                                                       0.900   0.900

     Mode symmetry, C_3v (3m)   point group:


     Atomic displacements:
     There are   4 irreducible representations

     Representation     1      1 modes -A_1  L_1  To be done

     Representation     2      1 modes -A_1  L_1  To be done

     Representation     3      2 modes -E    L_3  To be done

     Representation     4      2 modes -E    L_3  To be done



     Alpha used in Ewald sum =   0.7000
     PHONON       :     6.11s CPU         6.43s WALL



     Representation #  1 mode #   1

     Self-consistent Calculation

      iter #   1 total cpu time :     6.7 secs   av.it.:   5.5
      thresh= 1.000E-02 alpha_mix =  0.700 |ddv_scf|^2 =  1.370E-03

      iter #   2 total cpu time :     7.0 secs   av.it.:   7.8
      thresh= 3.702E-03 alpha_mix =  0.700 |ddv_scf|^2 =  2.107E-02

      iter #   3 total cpu time :     7.3 secs   av.it.:   6.3
      thresh= 1.000E-02 alpha_mix =  0.700 |ddv_scf|^2 =  9.977E-07

      iter #   4 total cpu time :     7.7 secs   av.it.:   8.5
      thresh= 9.988E-05 alpha_mix =  0.700 |ddv_scf|^2 =  7.118E-08

      iter #   5 total cpu time :     8.1 secs   av.it.:   8.3
      thresh= 2.668E-05 alpha_mix =  0.700 |ddv_scf|^2 =  2.803E-09

      iter #   6 total cpu time :     8.5 secs   av.it.:   8.4
      thresh= 5.294E-06 alpha_mix =  0.700 |ddv_scf|^2 =  2.081E-09

      iter #   7 total cpu time :     8.8 secs   av.it.:   6.7
      thresh= 4.562E-06 alpha_mix =  0.700 |ddv_scf|^2 =  5.235E-10

      iter #   8 total cpu time :     9.1 secs   av.it.:   7.5
      thresh= 2.288E-06 alpha_mix =  0.700 |ddv_scf|^2 =  2.008E-12

      iter #   9 total cpu time :     9.4 secs   av.it.:   7.4
      thresh= 1.417E-07 alpha_mix =  0.700 |ddv_scf|^2 =  9.059E-14

     End of self-consistent calculation

     Convergence has been achieved 


     Representation #  2 mode #   2

     Self-consistent Calculation

      iter #   1 total cpu time :     9.8 secs   av.it.:   5.5
      thresh= 1.000E-02 alpha_mix =  0.700 |ddv_scf|^2 =  1.370E-03

      iter #   2 total cpu time :    10.1 secs   av.it.:   7.8
      thresh= 3.702E-03 alpha_mix =  0.700 |ddv_scf|^2 =  2.107E-02

      iter #   3 total cpu time :    10.4 secs   av.it.:   6.3
      thresh= 1.000E-02 alpha_mix =  0.700 |ddv_scf|^2 =  9.977E-07

      iter #   4 total cpu time :    10.8 secs   av.it.:   8.5
      thresh= 9.988E-05 alpha_mix =  0.700 |ddv_scf|^2 =  7.118E-08

      iter #   5 total cpu time :    11.1 secs   av.it.:   8.3
      thresh= 2.668E-05 alpha_mix =  0.700 |ddv_scf|^2 =  2.803E-09

      iter #   6 total cpu time :    11.4 secs   av.it.:   8.4
      thresh= 5.294E-06 alpha_mix =  0.700 |ddv_scf|^2 =  2.081E-09

      iter #   7 total cpu time :    11.9 secs   av.it.:   6.7
      thresh= 4.562E-06 alpha_mix =  0.700 |ddv_scf|^2 =  5.235E-10

      iter #   8 total cpu time :    12.2 secs   av.it.:   7.5
      thresh= 2.288E-06 alpha_mix =  0.700 |ddv_scf|^2 =  2.008E-12

      iter #   9 total cpu time :    12.5 secs   av.it.:   7.4
      thresh= 1.417E-07 alpha_mix =  0.700 |ddv_scf|^2 =  9.059E-14

     End of self-consistent calculation

     Convergence has been achieved 


     Representation #  3 modes #   3  4

     Self-consistent Calculation

      iter #   1 total cpu time :    13.0 secs   av.it.:   4.9
      thresh= 1.000E-02 alpha_mix =  0.700 |ddv_scf|^2 =  3.275E-07

      iter #   2 total cpu time :    13.9 secs   av.it.:   9.9
      thresh= 5.723E-05 alpha_mix =  0.700 |ddv_scf|^2 =  2.471E-08

      iter #   3 total cpu time :    14.7 secs   av.it.:   9.7
      thresh= 1.572E-05 alpha_mix =  0.700 |ddv_scf|^2 =  2.180E-09

      iter #   4 total cpu time :    15.4 secs   av.it.:   9.3
      thresh= 4.669E-06 alpha_mix =  0.700 |ddv_scf|^2 =  6.814E-12

      iter #   5 total cpu time :    16.3 secs   av.it.:   9.6
      thresh= 2.610E-07 alpha_mix =  0.700 |ddv_scf|^2 =  2.943E-13

     End of self-consistent calculation

     Convergence has been achieved 


     Representation #  4 modes #   5  6

     Self-consistent Calculation

      iter #   1 total cpu time :    16.8 secs   av.it.:   5.0
      thresh= 1.000E-02 alpha_mix =  0.700 |ddv_scf|^2 =  3.274E-07

      iter #   2 total cpu time :    17.6 secs   av.it.:  10.0
      thresh= 5.722E-05 alpha_mix =  0.700 |ddv_scf|^2 =  2.467E-08

      iter #   3 total cpu time :    18.5 secs   av.it.:   9.9
      thresh= 1.571E-05 alpha_mix =  0.700 |ddv_scf|^2 =  2.177E-09

      iter #   4 total cpu time :    19.2 secs   av.it.:   9.4
      thresh= 4.666E-06 alpha_mix =  0.700 |ddv_scf|^2 =  6.821E-12

      iter #   5 total cpu time :    20.2 secs   av.it.:   9.7
      thresh= 2.612E-07 alpha_mix =  0.700 |ddv_scf|^2 =  2.947E-13

     End of self-consistent calculation

     Convergence has been achieved 

     Number of q in the star =    8
     List of q in the star:
          1  -0.250000000   0.250000000  -0.250000000
          2   0.250000000  -0.250000000  -0.250000000
          3   0.250000000  -0.250000000   0.250000000
          4   0.250000000   0.250000000   0.250000000
          5  -0.250000000  -0.250000000  -0.250000000
          6  -0.250000000  -0.250000000   0.250000000
          7  -0.250000000   0.250000000   0.250000000
          8   0.250000000   0.250000000  -0.250000000

     Diagonalizing the dynamical matrix

     q = (   -0.250000000   0.250000000  -0.250000000 ) 

 **************************************************************************
     freq (    1) =       2.931559 [THz] =      97.786271 [cm-1]
     freq (    2) =       2.931559 [THz] =      97.786271 [cm-1]
     freq (    3) =       6.308672 [THz] =     210.434653 [cm-1]
     freq (    4) =      14.005136 [THz] =     467.161049 [cm-1]
     freq (    5) =      14.208770 [THz] =     473.953543 [cm-1]
     freq (    6) =      14.208770 [THz] =     473.953543 [cm-1]
 **************************************************************************

     Mode symmetry, C_3v (3m)   point group:

     freq (  1 -  2) =         97.8  [cm-1]   --> E    L_3           
     freq (  3 -  3) =        210.4  [cm-1]   --> A_1  L_1           
     freq (  4 -  4) =        467.2  [cm-1]   --> A_1  L_1           
     freq (  5 -  6) =        474.0  [cm-1]   --> E    L_3           

     Calculation of q =    0.5000000  -0.5000000   0.5000000

   Info: using nr1, nr2, nr3 values from input

   Info: using nr1, nr2, nr3 values from input

     Parallelization info
     --------------------
     sticks:   dense  smooth     PW     G-vecs:    dense   smooth      PW
     Min          67      67     30                  743      743     205
     Max          69      69     31                  744      744     206
     Sum         271     271    121                 2975     2975     821



     bravais-lattice index     =            2
     lattice parameter (alat)  =      10.4900  a.u.
     unit-cell volume          =     288.5802 (a.u.)^3
     number of atoms/cell      =            2
     number of atomic types    =            1
     number of electrons       =         8.00
     number of Kohn-Sham states=            4
     kinetic-energy cutoff     =      18.0000  Ry
     charge density cutoff     =      72.0000  Ry
     Exchange-correlation      = SLA  PW   PBE  PBE ( 1  4  3  4 0 0)

     celldm(1)=  10.490000  celldm(2)=   0.000000  celldm(3)=   0.000000
     celldm(4)=   0.000000  celldm(5)=   0.000000  celldm(6)=   0.000000

     crystal axes: (cart. coord. in units of alat)
               a(1) = (  -0.500000   0.000000   0.500000 )  
               a(2) = (   0.000000   0.500000   0.500000 )  
               a(3) = (  -0.500000   0.500000   0.000000 )  

     reciprocal axes: (cart. coord. in units 2 pi/alat)
               b(1) = ( -1.000000 -1.000000  1.000000 )  
               b(2) = (  1.000000  1.000000  1.000000 )  
               b(3) = ( -1.000000  1.000000 -1.000000 )  


     PseudoPot. # 1 for Si read from file:
     /home/max/quantum_espresso/qe-6.1/pseudo/si_pbe_v1.uspp.F.UPF.txt
     MD5 check sum: a056efeee980c13900f22a371efd63c1
     Pseudo is Ultrasoft + core correction, Zval =  4.0
     Generated by new atomic code, or converted to UPF format
     Using radial grid of  899 points,  6 beta functions with: 
                l(1) =   0
                l(2) =   0
                l(3) =   1
                l(4) =   1
                l(5) =   2
                l(6) =   2
     Q(r) pseudized with  8 coefficients,  rinner =    0.900   0.900   0.900
                                                       0.900   0.900

     atomic species   valence    mass     pseudopotential
        Si             4.00    28.08600     Si( 1.00)

     48 Sym. Ops., with inversion, found



   Cartesian axes

     site n.     atom                  positions (alat units)
         1           Si  tau(   1) = (   0.0000000   0.0000000   0.0000000  )
         2           Si  tau(   2) = (   0.2500000   0.2500000   0.2500000  )

     number of k points=    60
                       cart. coord. in units 2pi/alat
        k(    1) = (  -0.1250000   0.1250000   0.1250000), wk =   0.0468750
        k(    2) = (   0.3750000  -0.3750000   0.6250000), wk =   0.0000000
        k(    3) = (  -0.3750000   0.3750000  -0.1250000), wk =   0.0468750
        k(    4) = (   0.1250000  -0.1250000   0.3750000), wk =   0.0000000
        k(    5) = (   0.3750000  -0.3750000   0.6250000), wk =   0.0468750
        k(    6) = (   0.8750000  -0.8750000   1.1250000), wk =   0.0000000
        k(    7) = (   0.1250000  -0.1250000   0.3750000), wk =   0.0468750
        k(    8) = (   0.6250000  -0.6250000   0.8750000), wk =   0.0000000
        k(    9) = (  -0.1250000   0.6250000   0.1250000), wk =   0.0937500
        k(   10) = (   0.3750000   0.1250000   0.6250000), wk =   0.0000000
        k(   11) = (   0.6250000  -0.1250000   0.8750000), wk =   0.0937500
        k(   12) = (   1.1250000  -0.6250000   1.3750000), wk =   0.0000000
        k(   13) = (   0.3750000   0.1250000   0.6250000), wk =   0.0937500
        k(   14) = (   0.8750000  -0.3750000   1.1250000), wk =   0.0000000
        k(   15) = (  -0.1250000  -0.8750000   0.1250000), wk =   0.0937500
        k(   16) = (   0.3750000  -1.3750000   0.6250000), wk =   0.0000000
        k(   17) = (  -0.3750000   0.3750000   0.3750000), wk =   0.0468750
        k(   18) = (   0.1250000  -0.1250000   0.8750000), wk =   0.0000000
        k(   19) = (   0.3750000  -0.3750000   1.1250000), wk =   0.0468750
        k(   20) = (   0.8750000  -0.8750000   1.6250000), wk =   0.0000000
        k(   21) = (   0.1250000  -0.1250000   0.1250000), wk =   0.0156250
        k(   22) = (   0.6250000  -0.6250000   0.6250000), wk =   0.0000000
        k(   23) = (  -0.3750000  -0.3750000  -0.1250000), wk =   0.0937500
        k(   24) = (   0.1250000  -0.8750000   0.3750000), wk =   0.0000000
        k(   25) = (  -0.1250000  -0.3750000   0.3750000), wk =   0.0468750
        k(   26) = (   0.3750000  -0.8750000   0.8750000), wk =   0.0000000
        k(   27) = (   0.3750000   0.3750000   0.6250000), wk =   0.0937500
        k(   28) = (   0.8750000  -0.1250000   1.1250000), wk =   0.0000000
        k(   29) = (   0.6250000   0.3750000  -0.3750000), wk =   0.0468750
        k(   30) = (   1.1250000  -0.1250000   0.1250000), wk =   0.0000000
        k(   31) = (   0.1250000   0.1250000   0.3750000), wk =   0.0937500
        k(   32) = (   0.6250000  -0.3750000   0.8750000), wk =   0.0000000
        k(   33) = (   0.3750000   0.1250000  -0.1250000), wk =   0.0468750
        k(   34) = (   0.8750000  -0.3750000   0.3750000), wk =   0.0000000
        k(   35) = (  -0.1250000  -0.6250000  -0.1250000), wk =   0.0468750
        k(   36) = (   0.3750000  -1.1250000   0.3750000), wk =   0.0000000
        k(   37) = (   0.1250000  -0.6250000   0.1250000), wk =   0.0468750
        k(   38) = (   0.6250000  -1.1250000   0.6250000), wk =   0.0000000
        k(   39) = (   0.6250000   0.1250000   0.8750000), wk =   0.0937500
        k(   40) = (   1.1250000  -0.3750000   1.3750000), wk =   0.0000000
        k(   41) = (  -0.8750000   0.1250000   0.6250000), wk =   0.0937500
        k(   42) = (  -0.3750000  -0.3750000   1.1250000), wk =   0.0000000
        k(   43) = (   0.8750000   0.1250000  -0.6250000), wk =   0.0937500
        k(   44) = (   1.3750000  -0.3750000  -0.1250000), wk =   0.0000000
        k(   45) = (   0.3750000  -0.1250000   0.6250000), wk =   0.0937500
        k(   46) = (   0.8750000  -0.6250000   1.1250000), wk =   0.0000000
        k(   47) = (  -0.6250000  -0.1250000   0.3750000), wk =   0.0937500
        k(   48) = (  -0.1250000  -0.6250000   0.8750000), wk =   0.0000000
        k(   49) = (   0.6250000  -0.1250000  -0.3750000), wk =   0.0937500
        k(   50) = (   1.1250000  -0.6250000   0.1250000), wk =   0.0000000
        k(   51) = (  -0.1250000   0.8750000  -0.1250000), wk =   0.0468750
        k(   52) = (   0.3750000   0.3750000   0.3750000), wk =   0.0000000
        k(   53) = (   0.1250000   0.8750000   0.1250000), wk =   0.0468750
        k(   54) = (   0.6250000   0.3750000   0.6250000), wk =   0.0000000
        k(   55) = (   0.3750000  -0.3750000   0.3750000), wk =   0.0156250
        k(   56) = (   0.8750000  -0.8750000   0.8750000), wk =   0.0000000
        k(   57) = (   0.3750000   0.3750000   1.1250000), wk =   0.0937500
        k(   58) = (   0.8750000  -0.1250000   1.6250000), wk =   0.0000000
        k(   59) = (   1.1250000   0.3750000  -0.3750000), wk =   0.0468750
        k(   60) = (   1.6250000  -0.1250000   0.1250000), wk =   0.0000000

     Dense  grid:     2975 G-vectors     FFT dimensions: (  24,  24,  24)

     Estimated max dynamical RAM per process >       0.43MB

     Estimated total allocated dynamical RAM >       1.71MB

     Check: negative/imaginary core charge=   -0.000006    0.000000

     The potential is recalculated from file :
     ./_ph0/silicon.10.49.save/charge-density.dat

     Starting wfc are    8 atomic wfcs

     Band Structure Calculation
     Davidson diagonalization with overlap

     ethr =  1.25E-10,  avg # of iterations = 11.7

     total cpu time spent up to now is        1.7 secs

     End of band structure calculation

          k =-0.1250 0.1250 0.1250 (   362 PWs)   bands (ev):

    -5.7886   3.9455   5.2617   5.2617

          k = 0.3750-0.3750 0.6250 (   377 PWs)   bands (ev):

    -3.7316  -0.9458   3.3561   4.0580

          k =-0.3750 0.3750-0.1250 (   370 PWs)   bands (ev):

    -4.8068   1.0300   3.3584   4.7919

          k = 0.1250-0.1250 0.3750 (   366 PWs)   bands (ev):

    -5.2826   2.3488   4.3020   4.3415

          k = 0.3750-0.3750 0.6250 (   377 PWs)   bands (ev):

    -3.7316  -0.9458   3.3561   4.0580

          k = 0.8750-0.8750 1.1250 (   362 PWs)   bands (ev):

    -5.7886   3.9455   5.2617   5.2617

          k = 0.1250-0.1250 0.3750 (   366 PWs)   bands (ev):

    -5.2826   2.3488   4.3020   4.3415

          k = 0.6250-0.6250 0.8750 (   370 PWs)   bands (ev):

    -4.8068   1.0300   3.3584   4.7919

          k =-0.1250 0.6250 0.1250 (   372 PWs)   bands (ev):

    -4.2948   0.6535   3.0348   3.4625

          k = 0.3750 0.1250 0.6250 (   372 PWs)   bands (ev):

    -3.9027  -0.1576   2.4147   3.7282

          k = 0.6250-0.1250 0.8750 (   381 PWs)   bands (ev):

    -2.7377  -1.2413   1.7618   2.7815

          k = 1.1250-0.6250 1.3750 (   370 PWs)   bands (ev):

    -4.8068   1.0300   3.3584   4.7919

          k = 0.3750 0.1250 0.6250 (   372 PWs)   bands (ev):

    -3.9027  -0.1576   2.4147   3.7282

          k = 0.8750-0.3750 1.1250 (   372 PWs)   bands (ev):

    -4.2948   0.6535   3.0348   3.4625

          k =-0.1250-0.8750 0.1250 (   368 PWs)   bands (ev):

    -2.8855  -1.1530   2.3365   3.0131

          k = 0.3750-1.3750 0.6250 (   377 PWs)   bands (ev):

    -3.7316  -0.9458   3.3561   4.0580

          k =-0.3750 0.3750 0.3750 (   362 PWs)   bands (ev):

    -4.3967  -0.1858   4.4987   4.4987

          k = 0.1250-0.1250 0.8750 (   368 PWs)   bands (ev):

    -2.8855  -1.1530   2.3365   3.0131

          k = 0.3750-0.3750 1.1250 (   374 PWs)   bands (ev):

    -3.2551  -0.9137   1.8008   3.7573

          k = 0.8750-0.8750 1.6250 (   372 PWs)   bands (ev):

    -4.2948   0.6535   3.0348   3.4625

          k = 0.1250-0.1250 0.1250 (   362 PWs)   bands (ev):

    -5.7886   3.9455   5.2617   5.2617

          k = 0.6250-0.6250 0.6250 (   362 PWs)   bands (ev):

    -4.3967  -0.1858   4.4987   4.4987

          k =-0.3750-0.3750-0.1250 (   370 PWs)   bands (ev):

    -4.8068   1.0300   3.3584   4.7919

          k = 0.1250-0.8750 0.3750 (   381 PWs)   bands (ev):

    -2.7377  -1.2413   1.7618   2.7815

          k =-0.1250-0.3750 0.3750 (   370 PWs)   bands (ev):

    -4.8068   1.0300   3.3584   4.7919

          k = 0.3750-0.8750 0.8750 (   372 PWs)   bands (ev):

    -4.2948   0.6535   3.0348   3.4625

          k = 0.3750 0.3750 0.6250 (   377 PWs)   bands (ev):

    -3.7316  -0.9458   3.3561   4.0580

          k = 0.8750-0.1250 1.1250 (   368 PWs)   bands (ev):

    -2.8855  -1.1530   2.3365   3.0131

          k = 0.6250 0.3750-0.3750 (   377 PWs)   bands (ev):

    -3.7316  -0.9458   3.3561   4.0580

          k = 1.1250-0.1250 0.1250 (   368 PWs)   bands (ev):

    -2.8855  -1.1530   2.3365   3.0131

          k = 0.1250 0.1250 0.3750 (   366 PWs)   bands (ev):

    -5.2826   2.3488   4.3020   4.3415

          k = 0.6250-0.3750 0.8750 (   372 PWs)   bands (ev):

    -3.9027  -0.1576   2.4147   3.7282

          k = 0.3750 0.1250-0.1250 (   366 PWs)   bands (ev):

    -5.2826   2.3488   4.3020   4.3415

          k = 0.8750-0.3750 0.3750 (   374 PWs)   bands (ev):

    -3.2551  -0.9137   1.8008   3.7573

          k =-0.1250-0.6250-0.1250 (   372 PWs)   bands (ev):

    -4.2948   0.6535   3.0348   3.4625

          k = 0.3750-1.1250 0.3750 (   374 PWs)   bands (ev):

    -3.2551  -0.9137   1.8008   3.7573

          k = 0.1250-0.6250 0.1250 (   372 PWs)   bands (ev):

    -4.2948   0.6535   3.0348   3.4625

          k = 0.6250-1.1250 0.6250 (   370 PWs)   bands (ev):

    -4.8068   1.0300   3.3584   4.7919

          k = 0.6250 0.1250 0.8750 (   381 PWs)   bands (ev):

    -2.7377  -1.2413   1.7618   2.7815

          k = 1.1250-0.3750 1.3750 (   372 PWs)   bands (ev):

    -3.9027  -0.1576   2.4147   3.7282

          k =-0.8750 0.1250 0.6250 (   381 PWs)   bands (ev):

    -2.7377  -1.2413   1.7618   2.7815

          k =-0.3750-0.3750 1.1250 (   374 PWs)   bands (ev):

    -3.2551  -0.9137   1.8008   3.7573

          k = 0.8750 0.1250-0.6250 (   381 PWs)   bands (ev):

    -2.7377  -1.2413   1.7618   2.7815

          k = 1.3750-0.3750-0.1250 (   372 PWs)   bands (ev):

    -3.9027  -0.1576   2.4147   3.7282

          k = 0.3750-0.1250 0.6250 (   372 PWs)   bands (ev):

    -3.9027  -0.1576   2.4147   3.7282

          k = 0.8750-0.6250 1.1250 (   366 PWs)   bands (ev):

    -5.2826   2.3488   4.3020   4.3415

          k =-0.6250-0.1250 0.3750 (   372 PWs)   bands (ev):

    -3.9027  -0.1576   2.4147   3.7282

          k =-0.1250-0.6250 0.8750 (   381 PWs)   bands (ev):

    -2.7377  -1.2413   1.7618   2.7815

          k = 0.6250-0.1250-0.3750 (   372 PWs)   bands (ev):

    -3.9027  -0.1576   2.4147   3.7282

          k = 1.1250-0.6250 0.1250 (   381 PWs)   bands (ev):

    -2.7377  -1.2413   1.7618   2.7815

          k =-0.1250 0.8750-0.1250 (   368 PWs)   bands (ev):

    -2.8855  -1.1530   2.3365   3.0131

          k = 0.3750 0.3750 0.3750 (   362 PWs)   bands (ev):

    -4.3967  -0.1858   4.4987   4.4987

          k = 0.1250 0.8750 0.1250 (   368 PWs)   bands (ev):

    -2.8855  -1.1530   2.3365   3.0131

          k = 0.6250 0.3750 0.6250 (   377 PWs)   bands (ev):

    -3.7316  -0.9458   3.3561   4.0580

          k = 0.3750-0.3750 0.3750 (   362 PWs)   bands (ev):

    -4.3967  -0.1858   4.4987   4.4987

          k = 0.8750-0.8750 0.8750 (   362 PWs)   bands (ev):

    -5.7886   3.9455   5.2617   5.2617

          k = 0.3750 0.3750 1.1250 (   374 PWs)   bands (ev):

    -3.2551  -0.9137   1.8008   3.7573

          k = 0.8750-0.1250 1.6250 (   381 PWs)   bands (ev):

    -2.7377  -1.2413   1.7618   2.7815

          k = 1.1250 0.3750-0.3750 (   374 PWs)   bands (ev):

    -3.2551  -0.9137   1.8008   3.7573

          k = 1.6250-0.1250 0.1250 (   366 PWs)   bands (ev):

    -5.2826   2.3488   4.3020   4.3415

     highest occupied level (ev):     5.2617

     Writing output data file silicon.10.49.save

                                                                                

     bravais-lattice index     =            2
     lattice parameter (alat)  =      10.4900  a.u.
     unit-cell volume          =     288.5802 (a.u.)^3
     number of atoms/cell      =            2
     number of atomic types    =            1
     kinetic-energy cut-off    =      18.0000  Ry
     charge density cut-off    =      72.0000  Ry
     convergence threshold     =      1.0E-12
     beta                      =       0.7000
     number of iterations used =            4
     Exchange-correlation      = SLA  PW   PBE  PBE ( 1  4  3  4 0 0)


     celldm(1)=   10.49000  celldm(2)=    0.00000  celldm(3)=    0.00000
     celldm(4)=    0.00000  celldm(5)=    0.00000  celldm(6)=    0.00000

     crystal axes: (cart. coord. in units of alat)
               a(1) = ( -0.5000  0.0000  0.5000 )  
               a(2) = (  0.0000  0.5000  0.5000 )  
               a(3) = ( -0.5000  0.5000  0.0000 )  

     reciprocal axes: (cart. coord. in units 2 pi/alat)
               b(1) = ( -1.0000 -1.0000  1.0000 )  
               b(2) = (  1.0000  1.0000  1.0000 )  
               b(3) = ( -1.0000  1.0000 -1.0000 )  


     Atoms inside the unit cell: 

     Cartesian axes

     site n.  atom      mass           positions (alat units)
        1     Si  28.0860   tau(    1) = (    0.00000    0.00000    0.00000  )
        2     Si  28.0860   tau(    2) = (    0.25000    0.25000    0.25000  )

     Computing dynamical matrix for 
                    q = (   0.5000000  -0.5000000   0.5000000 )

     13 Sym.Ops. (with q -> -q+G )


     G cutoff =  200.6891  (    744 G-vectors)     FFT grid: ( 24, 24, 24)
     number of k points=    60

     PseudoPot. # 1 for Si read from file:
     /home/max/quantum_espresso/qe-6.1/pseudo/si_pbe_v1.uspp.F.UPF.txt
     MD5 check sum: a056efeee980c13900f22a371efd63c1
     Pseudo is Ultrasoft + core correction, Zval =  4.0
     Generated by new atomic code, or converted to UPF format
     Using radial grid of  899 points,  6 beta functions with: 
                l(1) =   0
                l(2) =   0
                l(3) =   1
                l(4) =   1
                l(5) =   2
                l(6) =   2
     Q(r) pseudized with  8 coefficients,  rinner =    0.900   0.900   0.900
                                                       0.900   0.900


     Atomic displacements:
     There are   4 irreducible representations

     Representation     1      1 modes -  To be done

     Representation     2      1 modes -  To be done

     Representation     3      2 modes -  To be done

     Representation     4      2 modes -  To be done



     Alpha used in Ewald sum =   0.7000
     PHONON       :    19.85s CPU        21.00s WALL



     Representation #  1 mode #   1

     Self-consistent Calculation

      iter #   1 total cpu time :    21.1 secs   av.it.:   4.8
      thresh= 1.000E-02 alpha_mix =  0.700 |ddv_scf|^2 =  1.400E-05

      iter #   2 total cpu time :    21.3 secs   av.it.:   8.6
      thresh= 3.741E-04 alpha_mix =  0.700 |ddv_scf|^2 =  1.295E-05

      iter #   3 total cpu time :    21.5 secs   av.it.:   7.7
      thresh= 3.599E-04 alpha_mix =  0.700 |ddv_scf|^2 =  3.247E-08

      iter #   4 total cpu time :    21.7 secs   av.it.:   7.6
      thresh= 1.802E-05 alpha_mix =  0.700 |ddv_scf|^2 =  7.891E-11

      iter #   5 total cpu time :    22.0 secs   av.it.:   8.1
      thresh= 8.883E-07 alpha_mix =  0.700 |ddv_scf|^2 =  1.921E-12

      iter #   6 total cpu time :    22.2 secs   av.it.:   8.1
      thresh= 1.386E-07 alpha_mix =  0.700 |ddv_scf|^2 =  3.166E-14

     End of self-consistent calculation

     Convergence has been achieved 


     Representation #  2 mode #   2

     Self-consistent Calculation

      iter #   1 total cpu time :    22.4 secs   av.it.:   5.7
      thresh= 1.000E-02 alpha_mix =  0.700 |ddv_scf|^2 =  1.903E-04

      iter #   2 total cpu time :    22.6 secs   av.it.:   8.5
      thresh= 1.380E-03 alpha_mix =  0.700 |ddv_scf|^2 =  5.930E-04

      iter #   3 total cpu time :    22.7 secs   av.it.:   7.5
      thresh= 2.435E-03 alpha_mix =  0.700 |ddv_scf|^2 =  8.125E-08

      iter #   4 total cpu time :    22.9 secs   av.it.:   8.5
      thresh= 2.850E-05 alpha_mix =  0.700 |ddv_scf|^2 =  6.192E-09

      iter #   5 total cpu time :    23.1 secs   av.it.:   8.7
      thresh= 7.869E-06 alpha_mix =  0.700 |ddv_scf|^2 =  7.377E-11

      iter #   6 total cpu time :    23.3 secs   av.it.:   8.6
      thresh= 8.589E-07 alpha_mix =  0.700 |ddv_scf|^2 =  1.417E-12

      iter #   7 total cpu time :    23.5 secs   av.it.:   8.0
      thresh= 1.190E-07 alpha_mix =  0.700 |ddv_scf|^2 =  3.368E-15

     End of self-consistent calculation

     Convergence has been achieved 


     Representation #  3 modes #   3  4

     Self-consistent Calculation

      iter #   1 total cpu time :    23.9 secs   av.it.:   4.7
      thresh= 1.000E-02 alpha_mix =  0.700 |ddv_scf|^2 =  2.074E-07

      iter #   2 total cpu time :    24.3 secs   av.it.:   9.2
      thresh= 4.554E-05 alpha_mix =  0.700 |ddv_scf|^2 =  1.804E-08

      iter #   3 total cpu time :    24.7 secs   av.it.:   8.7
      thresh= 1.343E-05 alpha_mix =  0.700 |ddv_scf|^2 =  3.042E-10

      iter #   4 total cpu time :    25.0 secs   av.it.:   9.2
      thresh= 1.744E-06 alpha_mix =  0.700 |ddv_scf|^2 =  3.771E-12

      iter #   5 total cpu time :    25.4 secs   av.it.:   9.1
      thresh= 1.942E-07 alpha_mix =  0.700 |ddv_scf|^2 =  2.106E-14

     End of self-consistent calculation

     Convergence has been achieved 


     Representation #  4 modes #   5  6

     Self-consistent Calculation

      iter #   1 total cpu time :    25.8 secs   av.it.:   4.9
      thresh= 1.000E-02 alpha_mix =  0.700 |ddv_scf|^2 =  5.334E-07

      iter #   2 total cpu time :    26.3 secs   av.it.:   9.9
      thresh= 7.304E-05 alpha_mix =  0.700 |ddv_scf|^2 =  4.171E-08

      iter #   3 total cpu time :    26.6 secs   av.it.:   9.8
      thresh= 2.042E-05 alpha_mix =  0.700 |ddv_scf|^2 =  2.418E-09

      iter #   4 total cpu time :    27.0 secs   av.it.:   9.0
      thresh= 4.917E-06 alpha_mix =  0.700 |ddv_scf|^2 =  3.865E-12

      iter #   5 total cpu time :    27.4 secs   av.it.:   9.0
      thresh= 1.966E-07 alpha_mix =  0.700 |ddv_scf|^2 =  1.556E-14

     End of self-consistent calculation

     Convergence has been achieved 

     Number of q in the star =    4
     List of q in the star:
          1   0.500000000  -0.500000000   0.500000000
          2   0.500000000   0.500000000   0.500000000
          3  -0.500000000   0.500000000   0.500000000
          4   0.500000000   0.500000000  -0.500000000

     Diagonalizing the dynamical matrix

     q = (    0.500000000  -0.500000000   0.500000000 ) 

 **************************************************************************
     freq (    1) =       4.570331 [THz] =     152.449827 [cm-1]
     freq (    2) =       4.570331 [THz] =     152.449827 [cm-1]
     freq (    3) =      11.363277 [THz] =     379.038135 [cm-1]
     freq (    4) =      11.575713 [THz] =     386.124216 [cm-1]
     freq (    5) =      14.102167 [THz] =     470.397660 [cm-1]
     freq (    6) =      14.102167 [THz] =     470.397660 [cm-1]
 **************************************************************************

     Calculation of q =    0.0000000   0.5000000   0.0000000

   Info: using nr1, nr2, nr3 values from input

   Info: using nr1, nr2, nr3 values from input

     Parallelization info
     --------------------
     sticks:   dense  smooth     PW     G-vecs:    dense   smooth      PW
     Min          67      67     27                  743      743     181
     Max          69      69     28                  744      744     182
     Sum         271     271    109                 2975     2975     725



     bravais-lattice index     =            2
     lattice parameter (alat)  =      10.4900  a.u.
     unit-cell volume          =     288.5802 (a.u.)^3
     number of atoms/cell      =            2
     number of atomic types    =            1
     number of electrons       =         8.00
     number of Kohn-Sham states=            4
     kinetic-energy cutoff     =      18.0000  Ry
     charge density cutoff     =      72.0000  Ry
     Exchange-correlation      = SLA  PW   PBE  PBE ( 1  4  3  4 0 0)

     celldm(1)=  10.490000  celldm(2)=   0.000000  celldm(3)=   0.000000
     celldm(4)=   0.000000  celldm(5)=   0.000000  celldm(6)=   0.000000

     crystal axes: (cart. coord. in units of alat)
               a(1) = (  -0.500000   0.000000   0.500000 )  
               a(2) = (   0.000000   0.500000   0.500000 )  
               a(3) = (  -0.500000   0.500000   0.000000 )  

     reciprocal axes: (cart. coord. in units 2 pi/alat)
               b(1) = ( -1.000000 -1.000000  1.000000 )  
               b(2) = (  1.000000  1.000000  1.000000 )  
               b(3) = ( -1.000000  1.000000 -1.000000 )  


     PseudoPot. # 1 for Si read from file:
     /home/max/quantum_espresso/qe-6.1/pseudo/si_pbe_v1.uspp.F.UPF.txt
     MD5 check sum: a056efeee980c13900f22a371efd63c1
     Pseudo is Ultrasoft + core correction, Zval =  4.0
     Generated by new atomic code, or converted to UPF format
     Using radial grid of  899 points,  6 beta functions with: 
                l(1) =   0
                l(2) =   0
                l(3) =   1
                l(4) =   1
                l(5) =   2
                l(6) =   2
     Q(r) pseudized with  8 coefficients,  rinner =    0.900   0.900   0.900
                                                       0.900   0.900

     atomic species   valence    mass     pseudopotential
        Si             4.00    28.08600     Si( 1.00)

     48 Sym. Ops., with inversion, found



   Cartesian axes

     site n.     atom                  positions (alat units)
         1           Si  tau(   1) = (   0.0000000   0.0000000   0.0000000  )
         2           Si  tau(   2) = (   0.2500000   0.2500000   0.2500000  )

     number of k points=    80
                       cart. coord. in units 2pi/alat
        k(    1) = (  -0.1250000   0.1250000   0.1250000), wk =   0.0312500
        k(    2) = (  -0.1250000   0.6250000   0.1250000), wk =   0.0000000
        k(    3) = (  -0.3750000   0.3750000  -0.1250000), wk =   0.0625000
        k(    4) = (  -0.3750000   0.8750000  -0.1250000), wk =   0.0000000
        k(    5) = (   0.3750000  -0.3750000   0.6250000), wk =   0.0625000
        k(    6) = (   0.3750000   0.1250000   0.6250000), wk =   0.0000000
        k(    7) = (   0.1250000  -0.1250000   0.3750000), wk =   0.0625000
        k(    8) = (   0.1250000   0.3750000   0.3750000), wk =   0.0000000
        k(    9) = (  -0.1250000   0.6250000   0.1250000), wk =   0.0312500
        k(   10) = (  -0.1250000   1.1250000   0.1250000), wk =   0.0000000
        k(   11) = (   0.6250000  -0.1250000   0.8750000), wk =   0.0625000
        k(   12) = (   0.6250000   0.3750000   0.8750000), wk =   0.0000000
        k(   13) = (   0.3750000   0.1250000   0.6250000), wk =   0.0625000
        k(   14) = (   0.3750000   0.6250000   0.6250000), wk =   0.0000000
        k(   15) = (  -0.1250000  -0.8750000   0.1250000), wk =   0.0312500
        k(   16) = (  -0.1250000  -0.3750000   0.1250000), wk =   0.0000000
        k(   17) = (  -0.3750000   0.3750000   0.3750000), wk =   0.0312500
        k(   18) = (  -0.3750000   0.8750000   0.3750000), wk =   0.0000000
        k(   19) = (   0.3750000  -0.3750000   1.1250000), wk =   0.0625000
        k(   20) = (   0.3750000   0.1250000   1.1250000), wk =   0.0000000
        k(   21) = (  -0.1250000  -0.1250000   0.1250000), wk =   0.0312500
        k(   22) = (  -0.1250000   0.3750000   0.1250000), wk =   0.0000000
        k(   23) = (   0.1250000  -0.3750000   0.3750000), wk =   0.0625000
        k(   24) = (   0.1250000   0.1250000   0.3750000), wk =   0.0000000
        k(   25) = (   0.3750000  -0.1250000   0.3750000), wk =   0.0312500
        k(   26) = (   0.3750000   0.3750000   0.3750000), wk =   0.0000000
        k(   27) = (   0.3750000   0.1250000   0.3750000), wk =   0.0312500
        k(   28) = (   0.3750000   0.6250000   0.3750000), wk =   0.0000000
        k(   29) = (  -0.6250000   0.3750000  -0.3750000), wk =   0.0625000
        k(   30) = (  -0.6250000   0.8750000  -0.3750000), wk =   0.0000000
        k(   31) = (  -0.3750000   0.6250000  -0.3750000), wk =   0.0312500
        k(   32) = (  -0.3750000   1.1250000  -0.3750000), wk =   0.0000000
        k(   33) = (  -0.3750000  -0.6250000  -0.3750000), wk =   0.0312500
        k(   34) = (  -0.3750000  -0.1250000  -0.3750000), wk =   0.0000000
        k(   35) = (  -0.3750000   0.1250000  -0.1250000), wk =   0.0625000
        k(   36) = (  -0.3750000   0.6250000  -0.1250000), wk =   0.0000000
        k(   37) = (  -0.1250000   0.3750000  -0.1250000), wk =   0.0312500
        k(   38) = (  -0.1250000   0.8750000  -0.1250000), wk =   0.0000000
        k(   39) = (  -0.1250000  -0.3750000  -0.1250000), wk =   0.0312500
        k(   40) = (  -0.1250000   0.1250000  -0.1250000), wk =   0.0000000
        k(   41) = (  -0.1250000  -0.6250000   0.1250000), wk =   0.0312500
        k(   42) = (  -0.1250000  -0.1250000   0.1250000), wk =   0.0000000
        k(   43) = (   0.6250000  -0.1250000  -0.1250000), wk =   0.0625000
        k(   44) = (   0.6250000   0.3750000  -0.1250000), wk =   0.0000000
        k(   45) = (   0.6250000   0.1250000   0.1250000), wk =   0.0625000
        k(   46) = (   0.6250000   0.6250000   0.1250000), wk =   0.0000000
        k(   47) = (  -0.8750000   0.1250000  -0.6250000), wk =   0.0625000
        k(   48) = (  -0.8750000   0.6250000  -0.6250000), wk =   0.0000000
        k(   49) = (  -0.1250000   0.6250000  -0.8750000), wk =   0.0625000
        k(   50) = (  -0.1250000   1.1250000  -0.8750000), wk =   0.0000000
        k(   51) = (  -0.1250000   0.8750000  -0.6250000), wk =   0.0625000
        k(   52) = (  -0.1250000   1.3750000  -0.6250000), wk =   0.0000000
        k(   53) = (  -0.1250000  -0.8750000  -0.6250000), wk =   0.0625000
        k(   54) = (  -0.1250000  -0.3750000  -0.6250000), wk =   0.0000000
        k(   55) = (   0.8750000  -0.6250000   0.1250000), wk =   0.0625000
        k(   56) = (   0.8750000  -0.1250000   0.1250000), wk =   0.0000000
        k(   57) = (  -0.6250000  -0.1250000  -0.3750000), wk =   0.0625000
        k(   58) = (  -0.6250000   0.3750000  -0.3750000), wk =   0.0000000
        k(   59) = (   0.1250000   0.3750000  -0.6250000), wk =   0.0625000
        k(   60) = (   0.1250000   0.8750000  -0.6250000), wk =   0.0000000
        k(   61) = (   0.1250000   0.6250000  -0.3750000), wk =   0.0625000
        k(   62) = (   0.1250000   1.1250000  -0.3750000), wk =   0.0000000
        k(   63) = (   0.1250000  -0.6250000  -0.3750000), wk =   0.0625000
        k(   64) = (   0.1250000  -0.1250000  -0.3750000), wk =   0.0000000
        k(   65) = (   0.6250000  -0.3750000  -0.1250000), wk =   0.0625000
        k(   66) = (   0.6250000   0.1250000  -0.1250000), wk =   0.0000000
        k(   67) = (  -0.1250000   0.8750000   0.1250000), wk =   0.0312500
        k(   68) = (  -0.1250000   1.3750000   0.1250000), wk =   0.0000000
        k(   69) = (  -0.8750000  -0.1250000  -0.1250000), wk =   0.0625000
        k(   70) = (  -0.8750000   0.3750000  -0.1250000), wk =   0.0000000
        k(   71) = (  -0.8750000   0.1250000   0.1250000), wk =   0.0625000
        k(   72) = (  -0.8750000   0.6250000   0.1250000), wk =   0.0000000
        k(   73) = (  -0.3750000  -0.3750000   0.3750000), wk =   0.0312500
        k(   74) = (  -0.3750000   0.1250000   0.3750000), wk =   0.0000000
        k(   75) = (  -1.1250000   0.3750000  -0.3750000), wk =   0.0625000
        k(   76) = (  -1.1250000   0.8750000  -0.3750000), wk =   0.0000000
        k(   77) = (  -0.3750000   1.1250000  -0.3750000), wk =   0.0312500
        k(   78) = (  -0.3750000   1.6250000  -0.3750000), wk =   0.0000000
        k(   79) = (  -0.3750000  -1.1250000  -0.3750000), wk =   0.0312500
        k(   80) = (  -0.3750000  -0.6250000  -0.3750000), wk =   0.0000000

     Dense  grid:     2975 G-vectors     FFT dimensions: (  24,  24,  24)

     Estimated max dynamical RAM per process >       0.43MB

     Estimated total allocated dynamical RAM >       1.71MB

     Check: negative/imaginary core charge=   -0.000006    0.000000

     The potential is recalculated from file :
     ./_ph0/silicon.10.49.save/charge-density.dat

     Starting wfc are    8 atomic wfcs

     Band Structure Calculation
     Davidson diagonalization with overlap

     ethr =  1.25E-10,  avg # of iterations = 11.7

     total cpu time spent up to now is        2.6 secs

     End of band structure calculation

          k =-0.1250 0.1250 0.1250 (   362 PWs)   bands (ev):

    -5.7886   3.9455   5.2617   5.2617

          k =-0.1250 0.6250 0.1250 (   372 PWs)   bands (ev):

    -4.2948   0.6535   3.0348   3.4625

          k =-0.3750 0.3750-0.1250 (   370 PWs)   bands (ev):

    -4.8068   1.0300   3.3584   4.7919

          k =-0.3750 0.8750-0.1250 (   381 PWs)   bands (ev):

    -2.7377  -1.2413   1.7618   2.7815

          k = 0.3750-0.3750 0.6250 (   377 PWs)   bands (ev):

    -3.7316  -0.9458   3.3561   4.0580

          k = 0.3750 0.1250 0.6250 (   372 PWs)   bands (ev):

    -3.9027  -0.1576   2.4147   3.7282

          k = 0.1250-0.1250 0.3750 (   366 PWs)   bands (ev):

    -5.2826   2.3488   4.3020   4.3415

          k = 0.1250 0.3750 0.3750 (   370 PWs)   bands (ev):

    -4.8068   1.0300   3.3584   4.7919

          k =-0.1250 0.6250 0.1250 (   372 PWs)   bands (ev):

    -4.2948   0.6535   3.0348   3.4625

          k =-0.1250 1.1250 0.1250 (   368 PWs)   bands (ev):

    -2.8855  -1.1530   2.3365   3.0131

          k = 0.6250-0.1250 0.8750 (   381 PWs)   bands (ev):

    -2.7377  -1.2413   1.7618   2.7815

          k = 0.6250 0.3750 0.8750 (   372 PWs)   bands (ev):

    -3.9027  -0.1576   2.4147   3.7282

          k = 0.3750 0.1250 0.6250 (   372 PWs)   bands (ev):

    -3.9027  -0.1576   2.4147   3.7282

          k = 0.3750 0.6250 0.6250 (   377 PWs)   bands (ev):

    -3.7316  -0.9458   3.3561   4.0580

          k =-0.1250-0.8750 0.1250 (   368 PWs)   bands (ev):

    -2.8855  -1.1530   2.3365   3.0131

          k =-0.1250-0.3750 0.1250 (   366 PWs)   bands (ev):

    -5.2826   2.3488   4.3020   4.3415

          k =-0.3750 0.3750 0.3750 (   362 PWs)   bands (ev):

    -4.3967  -0.1858   4.4987   4.4987

          k =-0.3750 0.8750 0.3750 (   374 PWs)   bands (ev):

    -3.2551  -0.9137   1.8008   3.7573

          k = 0.3750-0.3750 1.1250 (   374 PWs)   bands (ev):

    -3.2551  -0.9137   1.8008   3.7573

          k = 0.3750 0.1250 1.1250 (   381 PWs)   bands (ev):

    -2.7377  -1.2413   1.7618   2.7815

          k =-0.1250-0.1250 0.1250 (   362 PWs)   bands (ev):

    -5.7886   3.9455   5.2617   5.2617

          k =-0.1250 0.3750 0.1250 (   366 PWs)   bands (ev):

    -5.2826   2.3488   4.3020   4.3415

          k = 0.1250-0.3750 0.3750 (   370 PWs)   bands (ev):

    -4.8068   1.0300   3.3584   4.7919

          k = 0.1250 0.1250 0.3750 (   366 PWs)   bands (ev):

    -5.2826   2.3488   4.3020   4.3415

          k = 0.3750-0.1250 0.3750 (   370 PWs)   bands (ev):

    -4.8068   1.0300   3.3584   4.7919

          k = 0.3750 0.3750 0.3750 (   362 PWs)   bands (ev):

    -4.3967  -0.1858   4.4987   4.4987

          k = 0.3750 0.1250 0.3750 (   370 PWs)   bands (ev):

    -4.8068   1.0300   3.3584   4.7919

          k = 0.3750 0.6250 0.3750 (   377 PWs)   bands (ev):

    -3.7316  -0.9458   3.3561   4.0580

          k =-0.6250 0.3750-0.3750 (   377 PWs)   bands (ev):

    -3.7316  -0.9458   3.3561   4.0580

          k =-0.6250 0.8750-0.3750 (   372 PWs)   bands (ev):

    -3.9027  -0.1576   2.4147   3.7282

          k =-0.3750 0.6250-0.3750 (   377 PWs)   bands (ev):

    -3.7316  -0.9458   3.3561   4.0580

          k =-0.3750 1.1250-0.3750 (   374 PWs)   bands (ev):

    -3.2551  -0.9137   1.8008   3.7573

          k =-0.3750-0.6250-0.3750 (   377 PWs)   bands (ev):

    -3.7316  -0.9458   3.3561   4.0580

          k =-0.3750-0.1250-0.3750 (   370 PWs)   bands (ev):

    -4.8068   1.0300   3.3584   4.7919

          k =-0.3750 0.1250-0.1250 (   366 PWs)   bands (ev):

    -5.2826   2.3488   4.3020   4.3415

          k =-0.3750 0.6250-0.1250 (   372 PWs)   bands (ev):

    -3.9027  -0.1576   2.4147   3.7282

          k =-0.1250 0.3750-0.1250 (   366 PWs)   bands (ev):

    -5.2826   2.3488   4.3020   4.3415

          k =-0.1250 0.8750-0.1250 (   368 PWs)   bands (ev):

    -2.8855  -1.1530   2.3365   3.0131

          k =-0.1250-0.3750-0.1250 (   366 PWs)   bands (ev):

    -5.2826   2.3488   4.3020   4.3415

          k =-0.1250 0.1250-0.1250 (   362 PWs)   bands (ev):

    -5.7886   3.9455   5.2617   5.2617

          k =-0.1250-0.6250 0.1250 (   372 PWs)   bands (ev):

    -4.2948   0.6535   3.0348   3.4625

          k =-0.1250-0.1250 0.1250 (   362 PWs)   bands (ev):

    -5.7886   3.9455   5.2617   5.2617

          k = 0.6250-0.1250-0.1250 (   372 PWs)   bands (ev):

    -4.2948   0.6535   3.0348   3.4625

          k = 0.6250 0.3750-0.1250 (   372 PWs)   bands (ev):

    -3.9027  -0.1576   2.4147   3.7282

          k = 0.6250 0.1250 0.1250 (   372 PWs)   bands (ev):

    -4.2948   0.6535   3.0348   3.4625

          k = 0.6250 0.6250 0.1250 (   374 PWs)   bands (ev):

    -3.2551  -0.9137   1.8008   3.7573

          k =-0.8750 0.1250-0.6250 (   381 PWs)   bands (ev):

    -2.7377  -1.2413   1.7618   2.7815

          k =-0.8750 0.6250-0.6250 (   370 PWs)   bands (ev):

    -4.8068   1.0300   3.3584   4.7919

          k =-0.1250 0.6250-0.8750 (   381 PWs)   bands (ev):

    -2.7377  -1.2413   1.7618   2.7815

          k =-0.1250 1.1250-0.8750 (   368 PWs)   bands (ev):

    -2.8855  -1.1530   2.3365   3.0131

          k =-0.1250 0.8750-0.6250 (   381 PWs)   bands (ev):

    -2.7377  -1.2413   1.7618   2.7815

          k =-0.1250 1.3750-0.6250 (   374 PWs)   bands (ev):

    -3.2551  -0.9137   1.8008   3.7573

          k =-0.1250-0.8750-0.6250 (   381 PWs)   bands (ev):

    -2.7377  -1.2413   1.7618   2.7815

          k =-0.1250-0.3750-0.6250 (   372 PWs)   bands (ev):

    -3.9027  -0.1576   2.4147   3.7282

          k = 0.8750-0.6250 0.1250 (   381 PWs)   bands (ev):

    -2.7377  -1.2413   1.7618   2.7815

          k = 0.8750-0.1250 0.1250 (   368 PWs)   bands (ev):

    -2.8855  -1.1530   2.3365   3.0131

          k =-0.6250-0.1250-0.3750 (   372 PWs)   bands (ev):

    -3.9027  -0.1576   2.4147   3.7282

          k =-0.6250 0.3750-0.3750 (   377 PWs)   bands (ev):

    -3.7316  -0.9458   3.3561   4.0580

          k = 0.1250 0.3750-0.6250 (   372 PWs)   bands (ev):

    -3.9027  -0.1576   2.4147   3.7282

          k = 0.1250 0.8750-0.6250 (   381 PWs)   bands (ev):

    -2.7377  -1.2413   1.7618   2.7815

          k = 0.1250 0.6250-0.3750 (   372 PWs)   bands (ev):

    -3.9027  -0.1576   2.4147   3.7282

          k = 0.1250 1.1250-0.3750 (   381 PWs)   bands (ev):

    -2.7377  -1.2413   1.7618   2.7815

          k = 0.1250-0.6250-0.3750 (   372 PWs)   bands (ev):

    -3.9027  -0.1576   2.4147   3.7282

          k = 0.1250-0.1250-0.3750 (   366 PWs)   bands (ev):

    -5.2826   2.3488   4.3020   4.3415

          k = 0.6250-0.3750-0.1250 (   372 PWs)   bands (ev):

    -3.9027  -0.1576   2.4147   3.7282

          k = 0.6250 0.1250-0.1250 (   372 PWs)   bands (ev):

    -4.2948   0.6535   3.0348   3.4625

          k =-0.1250 0.8750 0.1250 (   368 PWs)   bands (ev):

    -2.8855  -1.1530   2.3365   3.0131

          k =-0.1250 1.3750 0.1250 (   372 PWs)   bands (ev):

    -4.2948   0.6535   3.0348   3.4625

          k =-0.8750-0.1250-0.1250 (   368 PWs)   bands (ev):

    -2.8855  -1.1530   2.3365   3.0131

          k =-0.8750 0.3750-0.1250 (   381 PWs)   bands (ev):

    -2.7377  -1.2413   1.7618   2.7815

          k =-0.8750 0.1250 0.1250 (   368 PWs)   bands (ev):

    -2.8855  -1.1530   2.3365   3.0131

          k =-0.8750 0.6250 0.1250 (   381 PWs)   bands (ev):

    -2.7377  -1.2413   1.7618   2.7815

          k =-0.3750-0.3750 0.3750 (   362 PWs)   bands (ev):

    -4.3967  -0.1858   4.4987   4.4987

          k =-0.3750 0.1250 0.3750 (   370 PWs)   bands (ev):

    -4.8068   1.0300   3.3584   4.7919

          k =-1.1250 0.3750-0.3750 (   374 PWs)   bands (ev):

    -3.2551  -0.9137   1.8008   3.7573

          k =-1.1250 0.8750-0.3750 (   372 PWs)   bands (ev):

    -4.2948   0.6535   3.0348   3.4625

          k =-0.3750 1.1250-0.3750 (   374 PWs)   bands (ev):

    -3.2551  -0.9137   1.8008   3.7573

          k =-0.3750 1.6250-0.3750 (   362 PWs)   bands (ev):

    -4.3967  -0.1858   4.4987   4.4987

          k =-0.3750-1.1250-0.3750 (   374 PWs)   bands (ev):

    -3.2551  -0.9137   1.8008   3.7573

          k =-0.3750-0.6250-0.3750 (   377 PWs)   bands (ev):

    -3.7316  -0.9458   3.3561   4.0580

     highest occupied level (ev):     5.2617

     Writing output data file silicon.10.49.save

                                                                                

     bravais-lattice index     =            2
     lattice parameter (alat)  =      10.4900  a.u.
     unit-cell volume          =     288.5802 (a.u.)^3
     number of atoms/cell      =            2
     number of atomic types    =            1
     kinetic-energy cut-off    =      18.0000  Ry
     charge density cut-off    =      72.0000  Ry
     convergence threshold     =      1.0E-12
     beta                      =       0.7000
     number of iterations used =            4
     Exchange-correlation      = SLA  PW   PBE  PBE ( 1  4  3  4 0 0)


     celldm(1)=   10.49000  celldm(2)=    0.00000  celldm(3)=    0.00000
     celldm(4)=    0.00000  celldm(5)=    0.00000  celldm(6)=    0.00000

     crystal axes: (cart. coord. in units of alat)
               a(1) = ( -0.5000  0.0000  0.5000 )  
               a(2) = (  0.0000  0.5000  0.5000 )  
               a(3) = ( -0.5000  0.5000  0.0000 )  

     reciprocal axes: (cart. coord. in units 2 pi/alat)
               b(1) = ( -1.0000 -1.0000  1.0000 )  
               b(2) = (  1.0000  1.0000  1.0000 )  
               b(3) = ( -1.0000  1.0000 -1.0000 )  


     Atoms inside the unit cell: 

     Cartesian axes

     site n.  atom      mass           positions (alat units)
        1     Si  28.0860   tau(    1) = (    0.00000    0.00000    0.00000  )
        2     Si  28.0860   tau(    2) = (    0.25000    0.25000    0.25000  )

     Computing dynamical matrix for 
                    q = (   0.0000000   0.5000000   0.0000000 )

      8 Sym.Ops. (no q -> -q+G )


     G cutoff =  200.6891  (    744 G-vectors)     FFT grid: ( 24, 24, 24)
     number of k points=    80

     PseudoPot. # 1 for Si read from file:
     /home/max/quantum_espresso/qe-6.1/pseudo/si_pbe_v1.uspp.F.UPF.txt
     MD5 check sum: a056efeee980c13900f22a371efd63c1
     Pseudo is Ultrasoft + core correction, Zval =  4.0
     Generated by new atomic code, or converted to UPF format
     Using radial grid of  899 points,  6 beta functions with: 
                l(1) =   0
                l(2) =   0
                l(3) =   1
                l(4) =   1
                l(5) =   2
                l(6) =   2
     Q(r) pseudized with  8 coefficients,  rinner =    0.900   0.900   0.900
                                                       0.900   0.900

     Mode symmetry, C_4v (4mm)  point group:


     Atomic displacements:
     There are   4 irreducible representations

     Representation     1      1 modes -A_1  G_1 D_1  To be done

     Representation     2      1 modes -B_2  G_4 D_2'  To be done

     Representation     3      2 modes -E    G_5 D_5  To be done

     Representation     4      2 modes -E    G_5 D_5  To be done



     Alpha used in Ewald sum =   0.7000
     PHONON       :    26.96s CPU        28.56s WALL



     Representation #  1 mode #   1

     Self-consistent Calculation

      iter #   1 total cpu time :    28.8 secs   av.it.:   5.8
      thresh= 1.000E-02 alpha_mix =  0.700 |ddv_scf|^2 =  1.653E-03

      iter #   2 total cpu time :    29.0 secs   av.it.:   8.2
      thresh= 4.066E-03 alpha_mix =  0.700 |ddv_scf|^2 =  2.227E-02

      iter #   3 total cpu time :    29.2 secs   av.it.:   6.8
      thresh= 1.000E-02 alpha_mix =  0.700 |ddv_scf|^2 =  9.041E-08

      iter #   4 total cpu time :    29.4 secs   av.it.:   8.5
      thresh= 3.007E-05 alpha_mix =  0.700 |ddv_scf|^2 =  9.956E-09

      iter #   5 total cpu time :    29.6 secs   av.it.:   8.0
      thresh= 9.978E-06 alpha_mix =  0.700 |ddv_scf|^2 =  3.591E-10

      iter #   6 total cpu time :    30.0 secs   av.it.:   8.4
      thresh= 1.895E-06 alpha_mix =  0.700 |ddv_scf|^2 =  1.037E-12

      iter #   7 total cpu time :    30.3 secs   av.it.:   8.6
      thresh= 1.019E-07 alpha_mix =  0.700 |ddv_scf|^2 =  2.307E-13

     End of self-consistent calculation

     Convergence has been achieved 


     Representation #  2 mode #   2

     Self-consistent Calculation

      iter #   1 total cpu time :    30.5 secs   av.it.:   4.9
      thresh= 1.000E-02 alpha_mix =  0.700 |ddv_scf|^2 =  3.067E-06

      iter #   2 total cpu time :    30.7 secs   av.it.:   9.1
      thresh= 1.751E-04 alpha_mix =  0.700 |ddv_scf|^2 =  8.082E-07

      iter #   3 total cpu time :    30.9 secs   av.it.:   8.7
      thresh= 8.990E-05 alpha_mix =  0.700 |ddv_scf|^2 =  2.374E-08

      iter #   4 total cpu time :    31.2 secs   av.it.:   8.6
      thresh= 1.541E-05 alpha_mix =  0.700 |ddv_scf|^2 =  5.113E-10

      iter #   5 total cpu time :    31.4 secs   av.it.:   8.9
      thresh= 2.261E-06 alpha_mix =  0.700 |ddv_scf|^2 =  4.175E-12

      iter #   6 total cpu time :    31.6 secs   av.it.:   8.3
      thresh= 2.043E-07 alpha_mix =  0.700 |ddv_scf|^2 =  5.026E-14

     End of self-consistent calculation

     Convergence has been achieved 


     Representation #  3 modes #   3  4

     Self-consistent Calculation

      iter #   1 total cpu time :    32.2 secs   av.it.:   5.0
      thresh= 1.000E-02 alpha_mix =  0.700 |ddv_scf|^2 =  5.660E-07

      iter #   2 total cpu time :    32.7 secs   av.it.:  10.0
      thresh= 7.523E-05 alpha_mix =  0.700 |ddv_scf|^2 =  7.048E-08

      iter #   3 total cpu time :    33.2 secs   av.it.:   9.8
      thresh= 2.655E-05 alpha_mix =  0.700 |ddv_scf|^2 =  3.529E-09

      iter #   4 total cpu time :    33.9 secs   av.it.:   9.0
      thresh= 5.941E-06 alpha_mix =  0.700 |ddv_scf|^2 =  5.454E-12

      iter #   5 total cpu time :    34.4 secs   av.it.:   9.5
      thresh= 2.335E-07 alpha_mix =  0.700 |ddv_scf|^2 =  1.734E-13

     End of self-consistent calculation

     Convergence has been achieved 


     Representation #  4 modes #   5  6

     Self-consistent Calculation

      iter #   1 total cpu time :    34.7 secs   av.it.:   5.0
      thresh= 1.000E-02 alpha_mix =  0.700 |ddv_scf|^2 =  5.478E-07

      iter #   2 total cpu time :    35.2 secs   av.it.:  10.0
      thresh= 7.401E-05 alpha_mix =  0.700 |ddv_scf|^2 =  6.961E-08

      iter #   3 total cpu time :    35.9 secs   av.it.:   9.8
      thresh= 2.638E-05 alpha_mix =  0.700 |ddv_scf|^2 =  4.465E-09

      iter #   4 total cpu time :    36.4 secs   av.it.:   9.2
      thresh= 6.682E-06 alpha_mix =  0.700 |ddv_scf|^2 =  8.864E-12

      iter #   5 total cpu time :    36.9 secs   av.it.:   9.6
      thresh= 2.977E-07 alpha_mix =  0.700 |ddv_scf|^2 =  2.891E-14

     End of self-consistent calculation

     Convergence has been achieved 

     Number of q in the star =    6
     List of q in the star:
          1   0.000000000   0.500000000   0.000000000
          2   0.000000000  -0.500000000   0.000000000
          3   0.500000000   0.000000000   0.000000000
          4   0.000000000   0.000000000   0.500000000
          5   0.000000000   0.000000000  -0.500000000
          6  -0.500000000   0.000000000   0.000000000

     Diagonalizing the dynamical matrix

     q = (    0.000000000   0.500000000   0.000000000 ) 

 **************************************************************************
     freq (    1) =       3.860328 [THz] =     128.766666 [cm-1]
     freq (    2) =       3.860328 [THz] =     128.766666 [cm-1]
     freq (    3) =       6.601409 [THz] =     220.199316 [cm-1]
     freq (    4) =      13.495335 [THz] =     450.155912 [cm-1]
     freq (    5) =      13.495335 [THz] =     450.155912 [cm-1]
     freq (    6) =      14.218204 [THz] =     474.268231 [cm-1]
 **************************************************************************

     Mode symmetry, C_4v (4mm)  point group:

     freq (  1 -  2) =        128.8  [cm-1]   --> E    G_5 D_5       
     freq (  3 -  3) =        220.2  [cm-1]   --> A_1  G_1 D_1       
     freq (  4 -  5) =        450.2  [cm-1]   --> E    G_5 D_5       
     freq (  6 -  6) =        474.3  [cm-1]   --> B_2  G_4 D_2'      

     Calculation of q =    0.7500000  -0.2500000   0.7500000

   Info: using nr1, nr2, nr3 values from input

   Info: using nr1, nr2, nr3 values from input

     Parallelization info
     --------------------
     sticks:   dense  smooth     PW     G-vecs:    dense   smooth      PW
     Min          67      67     30                  743      743     216
     Max          68      68     31                  744      744     218
     Sum         271     271    121                 2975     2975     869



     bravais-lattice index     =            2
     lattice parameter (alat)  =      10.4900  a.u.
     unit-cell volume          =     288.5802 (a.u.)^3
     number of atoms/cell      =            2
     number of atomic types    =            1
     number of electrons       =         8.00
     number of Kohn-Sham states=            4
     kinetic-energy cutoff     =      18.0000  Ry
     charge density cutoff     =      72.0000  Ry
     Exchange-correlation      = SLA  PW   PBE  PBE ( 1  4  3  4 0 0)

     celldm(1)=  10.490000  celldm(2)=   0.000000  celldm(3)=   0.000000
     celldm(4)=   0.000000  celldm(5)=   0.000000  celldm(6)=   0.000000

     crystal axes: (cart. coord. in units of alat)
               a(1) = (  -0.500000   0.000000   0.500000 )  
               a(2) = (   0.000000   0.500000   0.500000 )  
               a(3) = (  -0.500000   0.500000   0.000000 )  

     reciprocal axes: (cart. coord. in units 2 pi/alat)
               b(1) = ( -1.000000 -1.000000  1.000000 )  
               b(2) = (  1.000000  1.000000  1.000000 )  
               b(3) = ( -1.000000  1.000000 -1.000000 )  


     PseudoPot. # 1 for Si read from file:
     /home/max/quantum_espresso/qe-6.1/pseudo/si_pbe_v1.uspp.F.UPF.txt
     MD5 check sum: a056efeee980c13900f22a371efd63c1
     Pseudo is Ultrasoft + core correction, Zval =  4.0
     Generated by new atomic code, or converted to UPF format
     Using radial grid of  899 points,  6 beta functions with: 
                l(1) =   0
                l(2) =   0
                l(3) =   1
                l(4) =   1
                l(5) =   2
                l(6) =   2
     Q(r) pseudized with  8 coefficients,  rinner =    0.900   0.900   0.900
                                                       0.900   0.900

     atomic species   valence    mass     pseudopotential
        Si             4.00    28.08600     Si( 1.00)

     48 Sym. Ops., with inversion, found



   Cartesian axes

     site n.     atom                  positions (alat units)
         1           Si  tau(   1) = (   0.0000000   0.0000000   0.0000000  )
         2           Si  tau(   2) = (   0.2500000   0.2500000   0.2500000  )

     number of k points=   288

     Number of k-points >= 100: set verbosity='high' to print them.

     Dense  grid:     2975 G-vectors     FFT dimensions: (  24,  24,  24)

     Estimated max dynamical RAM per process >       0.43MB

     Estimated total allocated dynamical RAM >       1.71MB

     Check: negative/imaginary core charge=   -0.000006    0.000000

     The potential is recalculated from file :
     ./_ph0/silicon.10.49.save/charge-density.dat

     Starting wfc are    8 atomic wfcs

     Band Structure Calculation
     Davidson diagonalization with overlap

     ethr =  1.25E-10,  avg # of iterations = 11.6

     total cpu time spent up to now is        5.0 secs

     End of band structure calculation

     Number of k-points >= 100: set verbosity='high' to print the bands.

     highest occupied level (ev):     5.2617

     Writing output data file silicon.10.49.save

                                                                                

     bravais-lattice index     =            2
     lattice parameter (alat)  =      10.4900  a.u.
     unit-cell volume          =     288.5802 (a.u.)^3
     number of atoms/cell      =            2
     number of atomic types    =            1
     kinetic-energy cut-off    =      18.0000  Ry
     charge density cut-off    =      72.0000  Ry
     convergence threshold     =      1.0E-12
     beta                      =       0.7000
     number of iterations used =            4
     Exchange-correlation      = SLA  PW   PBE  PBE ( 1  4  3  4 0 0)


     celldm(1)=   10.49000  celldm(2)=    0.00000  celldm(3)=    0.00000
     celldm(4)=    0.00000  celldm(5)=    0.00000  celldm(6)=    0.00000

     crystal axes: (cart. coord. in units of alat)
               a(1) = ( -0.5000  0.0000  0.5000 )  
               a(2) = (  0.0000  0.5000  0.5000 )  
               a(3) = ( -0.5000  0.5000  0.0000 )  

     reciprocal axes: (cart. coord. in units 2 pi/alat)
               b(1) = ( -1.0000 -1.0000  1.0000 )  
               b(2) = (  1.0000  1.0000  1.0000 )  
               b(3) = ( -1.0000  1.0000 -1.0000 )  


     Atoms inside the unit cell: 

     Cartesian axes

     site n.  atom      mass           positions (alat units)
        1     Si  28.0860   tau(    1) = (    0.00000    0.00000    0.00000  )
        2     Si  28.0860   tau(    2) = (    0.25000    0.25000    0.25000  )

     Computing dynamical matrix for 
                    q = (   0.7500000  -0.2500000   0.7500000 )

      2 Sym.Ops. (no q -> -q+G )


     G cutoff =  200.6891  (    744 G-vectors)     FFT grid: ( 24, 24, 24)
     number of k points=   288

     PseudoPot. # 1 for Si read from file:
     /home/max/quantum_espresso/qe-6.1/pseudo/si_pbe_v1.uspp.F.UPF.txt
     MD5 check sum: a056efeee980c13900f22a371efd63c1
     Pseudo is Ultrasoft + core correction, Zval =  4.0
     Generated by new atomic code, or converted to UPF format
     Using radial grid of  899 points,  6 beta functions with: 
                l(1) =   0
                l(2) =   0
                l(3) =   1
                l(4) =   1
                l(5) =   2
                l(6) =   2
     Q(r) pseudized with  8 coefficients,  rinner =    0.900   0.900   0.900
                                                       0.900   0.900

     Mode symmetry, C_s (m)     point group:


     Atomic displacements:
     There are   6 irreducible representations

     Representation     1      1 modes -A'  To be done

     Representation     2      1 modes -A'  To be done

     Representation     3      1 modes -A'  To be done

     Representation     4      1 modes -A'  To be done

     Representation     5      1 modes -A''  To be done

     Representation     6      1 modes -A''  To be done



     Alpha used in Ewald sum =   0.7000
     PHONON       :    37.81s CPU        40.29s WALL



     Representation #  1 mode #   1

     Self-consistent Calculation

      iter #   1 total cpu time :    40.9 secs   av.it.:   5.3
      thresh= 1.000E-02 alpha_mix =  0.700 |ddv_scf|^2 =  3.424E-05

      iter #   2 total cpu time :    41.9 secs   av.it.:   9.1
      thresh= 5.852E-04 alpha_mix =  0.700 |ddv_scf|^2 =  9.204E-05

      iter #   3 total cpu time :    42.7 secs   av.it.:   7.8
      thresh= 9.594E-04 alpha_mix =  0.700 |ddv_scf|^2 =  6.517E-07

      iter #   4 total cpu time :    43.5 secs   av.it.:   8.8
      thresh= 8.073E-05 alpha_mix =  0.700 |ddv_scf|^2 =  3.818E-08

      iter #   5 total cpu time :    44.5 secs   av.it.:   8.7
      thresh= 1.954E-05 alpha_mix =  0.700 |ddv_scf|^2 =  4.438E-09

      iter #   6 total cpu time :    45.3 secs   av.it.:   8.8
      thresh= 6.662E-06 alpha_mix =  0.700 |ddv_scf|^2 =  5.813E-11

      iter #   7 total cpu time :    46.3 secs   av.it.:   9.1
      thresh= 7.624E-07 alpha_mix =  0.700 |ddv_scf|^2 =  2.288E-12

      iter #   8 total cpu time :    47.2 secs   av.it.:   9.0
      thresh= 1.513E-07 alpha_mix =  0.700 |ddv_scf|^2 =  3.031E-13

     End of self-consistent calculation

     Convergence has been achieved 


     Representation #  2 mode #   2

     Self-consistent Calculation

      iter #   1 total cpu time :    48.0 secs   av.it.:   5.4
      thresh= 1.000E-02 alpha_mix =  0.700 |ddv_scf|^2 =  6.037E-05

      iter #   2 total cpu time :    49.0 secs   av.it.:   9.0
      thresh= 7.770E-04 alpha_mix =  0.700 |ddv_scf|^2 =  1.752E-04

      iter #   3 total cpu time :    49.9 secs   av.it.:   7.8
      thresh= 1.324E-03 alpha_mix =  0.700 |ddv_scf|^2 =  4.768E-07

      iter #   4 total cpu time :    50.8 secs   av.it.:   8.9
      thresh= 6.905E-05 alpha_mix =  0.700 |ddv_scf|^2 =  3.671E-08

      iter #   5 total cpu time :    51.6 secs   av.it.:   8.7
      thresh= 1.916E-05 alpha_mix =  0.700 |ddv_scf|^2 =  6.798E-09

      iter #   6 total cpu time :    52.6 secs   av.it.:   8.8
      thresh= 8.245E-06 alpha_mix =  0.700 |ddv_scf|^2 =  5.171E-11

      iter #   7 total cpu time :    53.4 secs   av.it.:   9.1
      thresh= 7.191E-07 alpha_mix =  0.700 |ddv_scf|^2 =  1.793E-12

      iter #   8 total cpu time :    54.4 secs   av.it.:   9.0
      thresh= 1.339E-07 alpha_mix =  0.700 |ddv_scf|^2 =  5.148E-13

     End of self-consistent calculation

     Convergence has been achieved 


     Representation #  3 mode #   3

     Self-consistent Calculation

      iter #   1 total cpu time :    55.1 secs   av.it.:   5.3
      thresh= 1.000E-02 alpha_mix =  0.700 |ddv_scf|^2 =  4.723E-05

      iter #   2 total cpu time :    56.1 secs   av.it.:   9.0
      thresh= 6.872E-04 alpha_mix =  0.700 |ddv_scf|^2 =  1.277E-04

      iter #   3 total cpu time :    56.9 secs   av.it.:   7.8
      thresh= 1.130E-03 alpha_mix =  0.700 |ddv_scf|^2 =  8.045E-07

      iter #   4 total cpu time :    57.7 secs   av.it.:   8.6
      thresh= 8.970E-05 alpha_mix =  0.700 |ddv_scf|^2 =  3.710E-08

      iter #   5 total cpu time :    58.7 secs   av.it.:   8.8
      thresh= 1.926E-05 alpha_mix =  0.700 |ddv_scf|^2 =  7.172E-09

      iter #   6 total cpu time :    59.5 secs   av.it.:   8.8
      thresh= 8.468E-06 alpha_mix =  0.700 |ddv_scf|^2 =  2.885E-11

      iter #   7 total cpu time :    60.5 secs   av.it.:   9.0
      thresh= 5.371E-07 alpha_mix =  0.700 |ddv_scf|^2 =  1.243E-12

      iter #   8 total cpu time :    61.3 secs   av.it.:   9.0
      thresh= 1.115E-07 alpha_mix =  0.700 |ddv_scf|^2 =  5.664E-13

     End of self-consistent calculation

     Convergence has been achieved 


     Representation #  4 mode #   4

     Self-consistent Calculation

      iter #   1 total cpu time :    62.2 secs   av.it.:   5.2
      thresh= 1.000E-02 alpha_mix =  0.700 |ddv_scf|^2 =  2.111E-05

      iter #   2 total cpu time :    63.0 secs   av.it.:   9.2
[...]
        k(   59) = (  -0.8750000   0.1250000  -0.1250000), wk =   0.0625000
        k(   60) = (  -1.3750000  -0.8750000  -0.1250000), wk =   0.0000000
        k(   61) = (  -1.1250000   0.3750000  -0.3750000), wk =   0.0625000
        k(   62) = (  -1.6250000  -0.6250000  -0.3750000), wk =   0.0000000
        k(   63) = (  -0.3750000   0.3750000   1.1250000), wk =   0.0625000
        k(   64) = (  -0.8750000  -0.6250000   1.1250000), wk =   0.0000000

     Dense  grid:     2975 G-vectors     FFT dimensions: (  24,  24,  24)

     Estimated max dynamical RAM per process >       0.43MB

     Estimated total allocated dynamical RAM >       1.71MB

     Check: negative/imaginary core charge=   -0.000006    0.000000

     The potential is recalculated from file :
     ./_ph0/silicon.10.49.save/charge-density.dat

     Starting wfc are    8 atomic wfcs

     Band Structure Calculation
     Davidson diagonalization with overlap

     ethr =  1.25E-10,  avg # of iterations = 11.6

     total cpu time spent up to now is        7.9 secs

     End of band structure calculation

          k =-0.1250 0.1250 0.1250 (   362 PWs)   bands (ev):

    -5.7886   3.9455   5.2617   5.2617

          k =-0.6250-0.8750 0.1250 (   381 PWs)   bands (ev):

    -2.7377  -1.2413   1.7618   2.7815

          k =-0.3750 0.3750-0.1250 (   370 PWs)   bands (ev):

    -4.8068   1.0300   3.3584   4.7919

          k =-0.8750-0.6250-0.1250 (   381 PWs)   bands (ev):

    -2.7377  -1.2413   1.7618   2.7815

          k = 0.3750-0.3750 0.6250 (   377 PWs)   bands (ev):

    -3.7316  -0.9458   3.3561   4.0580

          k =-0.1250-1.3750 0.6250 (   374 PWs)   bands (ev):

    -3.2551  -0.9137   1.8008   3.7573

          k = 0.1250-0.1250 0.3750 (   366 PWs)   bands (ev):

    -5.2826   2.3488   4.3020   4.3415

          k =-0.3750-1.1250 0.3750 (   374 PWs)   bands (ev):

    -3.2551  -0.9137   1.8008   3.7573

          k =-0.1250 0.6250 0.1250 (   372 PWs)   bands (ev):

    -4.2948   0.6535   3.0348   3.4625

          k =-0.6250-0.3750 0.1250 (   372 PWs)   bands (ev):

    -3.9027  -0.1576   2.4147   3.7282

          k = 0.6250-0.1250 0.8750 (   381 PWs)   bands (ev):

    -2.7377  -1.2413   1.7618   2.7815

          k = 0.1250-1.1250 0.8750 (   368 PWs)   bands (ev):

    -2.8855  -1.1530   2.3365   3.0131

          k = 0.3750 0.1250 0.6250 (   372 PWs)   bands (ev):

    -3.9027  -0.1576   2.4147   3.7282

          k =-0.1250-0.8750 0.6250 (   381 PWs)   bands (ev):

    -2.7377  -1.2413   1.7618   2.7815

          k =-0.1250-0.8750 0.1250 (   368 PWs)   bands (ev):

    -2.8855  -1.1530   2.3365   3.0131

          k =-0.6250-1.8750 0.1250 (   372 PWs)   bands (ev):

    -4.2948   0.6535   3.0348   3.4625

          k =-0.3750 0.3750 0.3750 (   362 PWs)   bands (ev):

    -4.3967  -0.1858   4.4987   4.4987

          k =-0.8750-0.6250 0.3750 (   372 PWs)   bands (ev):

    -3.9027  -0.1576   2.4147   3.7282

          k = 0.3750-0.3750 1.1250 (   374 PWs)   bands (ev):

    -3.2551  -0.9137   1.8008   3.7573

          k =-0.1250-1.3750 1.1250 (   381 PWs)   bands (ev):

    -2.7377  -1.2413   1.7618   2.7815

          k = 0.1250-0.3750 0.3750 (   370 PWs)   bands (ev):

    -4.8068   1.0300   3.3584   4.7919

          k =-0.3750-1.3750 0.3750 (   377 PWs)   bands (ev):

    -3.7316  -0.9458   3.3561   4.0580

          k = 0.3750-0.3750-0.1250 (   370 PWs)   bands (ev):

    -4.8068   1.0300   3.3584   4.7919

          k =-0.1250-1.3750-0.1250 (   372 PWs)   bands (ev):

    -4.2948   0.6535   3.0348   3.4625

          k =-0.6250 0.3750-0.3750 (   377 PWs)   bands (ev):

    -3.7316  -0.9458   3.3561   4.0580

          k =-1.1250-0.6250-0.3750 (   372 PWs)   bands (ev):

    -3.9027  -0.1576   2.4147   3.7282

          k =-0.3750 0.3750 0.6250 (   377 PWs)   bands (ev):

    -3.7316  -0.9458   3.3561   4.0580

          k =-0.8750-0.6250 0.6250 (   370 PWs)   bands (ev):

    -4.8068   1.0300   3.3584   4.7919

          k =-0.3750 0.1250-0.1250 (   366 PWs)   bands (ev):

    -5.2826   2.3488   4.3020   4.3415

          k =-0.8750-0.8750-0.1250 (   368 PWs)   bands (ev):

    -2.8855  -1.1530   2.3365   3.0131

          k =-0.1250 0.1250 0.3750 (   366 PWs)   bands (ev):

    -5.2826   2.3488   4.3020   4.3415

          k =-0.6250-0.8750 0.3750 (   372 PWs)   bands (ev):

    -3.9027  -0.1576   2.4147   3.7282

          k = 0.1250 0.6250-0.1250 (   372 PWs)   bands (ev):

    -4.2948   0.6535   3.0348   3.4625

          k =-0.3750-0.3750-0.1250 (   370 PWs)   bands (ev):

    -4.8068   1.0300   3.3584   4.7919

          k = 0.6250 0.1250-0.1250 (   372 PWs)   bands (ev):

    -4.2948   0.6535   3.0348   3.4625

          k = 0.1250-0.8750-0.1250 (   368 PWs)   bands (ev):

    -2.8855  -1.1530   2.3365   3.0131

          k =-0.8750 0.1250-0.6250 (   381 PWs)   bands (ev):

    -2.7377  -1.2413   1.7618   2.7815

          k =-1.3750-0.8750-0.6250 (   370 PWs)   bands (ev):

    -4.8068   1.0300   3.3584   4.7919

          k = 0.8750-0.1250 0.6250 (   381 PWs)   bands (ev):

    -2.7377  -1.2413   1.7618   2.7815

          k = 0.3750-1.1250 0.6250 (   372 PWs)   bands (ev):

    -3.9027  -0.1576   2.4147   3.7282

          k =-0.6250 0.1250 0.8750 (   381 PWs)   bands (ev):

    -2.7377  -1.2413   1.7618   2.7815

          k =-1.1250-0.8750 0.8750 (   362 PWs)   bands (ev):

    -5.7886   3.9455   5.2617   5.2617

          k =-0.1250 0.8750 0.6250 (   381 PWs)   bands (ev):

    -2.7377  -1.2413   1.7618   2.7815

          k =-0.6250-0.1250 0.6250 (   374 PWs)   bands (ev):

    -3.2551  -0.9137   1.8008   3.7573

          k = 0.1250 0.8750-0.6250 (   381 PWs)   bands (ev):

    -2.7377  -1.2413   1.7618   2.7815

          k =-0.3750-0.1250-0.6250 (   372 PWs)   bands (ev):

    -3.9027  -0.1576   2.4147   3.7282

          k =-0.6250-0.1250-0.3750 (   372 PWs)   bands (ev):

    -3.9027  -0.1576   2.4147   3.7282

          k =-1.1250-1.1250-0.3750 (   372 PWs)   bands (ev):

    -4.2948   0.6535   3.0348   3.4625

          k = 0.6250 0.1250 0.3750 (   372 PWs)   bands (ev):

    -3.9027  -0.1576   2.4147   3.7282

          k = 0.1250-0.8750 0.3750 (   381 PWs)   bands (ev):

    -2.7377  -1.2413   1.7618   2.7815

          k =-0.3750-0.1250 0.6250 (   372 PWs)   bands (ev):

    -3.9027  -0.1576   2.4147   3.7282

          k =-0.8750-1.1250 0.6250 (   366 PWs)   bands (ev):

    -5.2826   2.3488   4.3020   4.3415

          k = 0.1250 0.6250 0.3750 (   372 PWs)   bands (ev):

    -3.9027  -0.1576   2.4147   3.7282

          k =-0.3750-0.3750 0.3750 (   362 PWs)   bands (ev):

    -4.3967  -0.1858   4.4987   4.4987

          k =-0.1250 0.6250-0.3750 (   372 PWs)   bands (ev):

    -3.9027  -0.1576   2.4147   3.7282

          k =-0.6250-0.3750-0.3750 (   377 PWs)   bands (ev):

    -3.7316  -0.9458   3.3561   4.0580

          k = 0.1250-0.8750-0.1250 (   368 PWs)   bands (ev):

    -2.8855  -1.1530   2.3365   3.0131

          k =-0.3750-1.8750-0.1250 (   366 PWs)   bands (ev):

    -5.2826   2.3488   4.3020   4.3415

          k =-0.8750 0.1250-0.1250 (   368 PWs)   bands (ev):

    -2.8855  -1.1530   2.3365   3.0131

          k =-1.3750-0.8750-0.1250 (   381 PWs)   bands (ev):

    -2.7377  -1.2413   1.7618   2.7815

          k =-1.1250 0.3750-0.3750 (   374 PWs)   bands (ev):

    -3.2551  -0.9137   1.8008   3.7573

          k =-1.6250-0.6250-0.3750 (   377 PWs)   bands (ev):

    -3.7316  -0.9458   3.3561   4.0580

          k =-0.3750 0.3750 1.1250 (   374 PWs)   bands (ev):

    -3.2551  -0.9137   1.8008   3.7573

          k =-0.8750-0.6250 1.1250 (   366 PWs)   bands (ev):

    -5.2826   2.3488   4.3020   4.3415

     highest occupied level (ev):     5.2617

     Writing output data file silicon.10.49.save

                                                                                

     bravais-lattice index     =            2
     lattice parameter (alat)  =      10.4900  a.u.
     unit-cell volume          =     288.5802 (a.u.)^3
     number of atoms/cell      =            2
     number of atomic types    =            1
     kinetic-energy cut-off    =      18.0000  Ry
     charge density cut-off    =      72.0000  Ry
     convergence threshold     =      1.0E-12
     beta                      =       0.7000
     number of iterations used =            4
     Exchange-correlation      = SLA  PW   PBE  PBE ( 1  4  3  4 0 0)


     celldm(1)=   10.49000  celldm(2)=    0.00000  celldm(3)=    0.00000
     celldm(4)=    0.00000  celldm(5)=    0.00000  celldm(6)=    0.00000

     crystal axes: (cart. coord. in units of alat)
               a(1) = ( -0.5000  0.0000  0.5000 )  
               a(2) = (  0.0000  0.5000  0.5000 )  
               a(3) = ( -0.5000  0.5000  0.0000 )  

     reciprocal axes: (cart. coord. in units 2 pi/alat)
               b(1) = ( -1.0000 -1.0000  1.0000 )  
               b(2) = (  1.0000  1.0000  1.0000 )  
               b(3) = ( -1.0000  1.0000 -1.0000 )  


     Atoms inside the unit cell: 

     Cartesian axes

     site n.  atom      mass           positions (alat units)
        1     Si  28.0860   tau(    1) = (    0.00000    0.00000    0.00000  )
        2     Si  28.0860   tau(    2) = (    0.25000    0.25000    0.25000  )

     Computing dynamical matrix for 
                    q = (  -0.5000000  -1.0000000   0.0000000 )

      8 Sym.Ops. (no q -> -q+G )


     G cutoff =  200.6891  (    744 G-vectors)     FFT grid: ( 24, 24, 24)
     number of k points=    64

     PseudoPot. # 1 for Si read from file:
     /home/max/quantum_espresso/qe-6.1/pseudo/si_pbe_v1.uspp.F.UPF.txt
     MD5 check sum: a056efeee980c13900f22a371efd63c1
     Pseudo is Ultrasoft + core correction, Zval =  4.0
     Generated by new atomic code, or converted to UPF format
     Using radial grid of  899 points,  6 beta functions with: 
                l(1) =   0
                l(2) =   0
                l(3) =   1
                l(4) =   1
                l(5) =   2
                l(6) =   2
     Q(r) pseudized with  8 coefficients,  rinner =    0.900   0.900   0.900
                                                       0.900   0.900


     Atomic displacements:
     There are   3 irreducible representations

     Representation     1      2 modes -  To be done

     Representation     2      2 modes -  To be done

     Representation     3      2 modes -  To be done



     Alpha used in Ewald sum =   0.7000
     PHONON       :  1m35.13s CPU     1m41.20s WALL



     Representation #  1 modes #   1  2

     Self-consistent Calculation

      iter #   1 total cpu time :   101.5 secs   av.it.:   5.3
      thresh= 1.000E-02 alpha_mix =  0.700 |ddv_scf|^2 =  3.508E-06

      iter #   2 total cpu time :   102.1 secs   av.it.:  10.1
      thresh= 1.873E-04 alpha_mix =  0.700 |ddv_scf|^2 =  1.871E-06

      iter #   3 total cpu time :   102.5 secs   av.it.:   9.6
      thresh= 1.368E-04 alpha_mix =  0.700 |ddv_scf|^2 =  5.144E-09

      iter #   4 total cpu time :   102.9 secs   av.it.:   9.4
      thresh= 7.172E-06 alpha_mix =  0.700 |ddv_scf|^2 =  1.032E-11

      iter #   5 total cpu time :   103.3 secs   av.it.:   9.5
      thresh= 3.212E-07 alpha_mix =  0.700 |ddv_scf|^2 =  3.025E-13

     End of self-consistent calculation

     Convergence has been achieved 


     Representation #  2 modes #   3  4

     Self-consistent Calculation

      iter #   1 total cpu time :   103.6 secs   av.it.:   5.2
      thresh= 1.000E-02 alpha_mix =  0.700 |ddv_scf|^2 =  5.532E-06

      iter #   2 total cpu time :   104.2 secs   av.it.:  10.3
      thresh= 2.352E-04 alpha_mix =  0.700 |ddv_scf|^2 =  7.731E-06

      iter #   3 total cpu time :   104.6 secs   av.it.:   9.5
      thresh= 2.780E-04 alpha_mix =  0.700 |ddv_scf|^2 =  6.262E-09

      iter #   4 total cpu time :   105.0 secs   av.it.:   9.2
      thresh= 7.914E-06 alpha_mix =  0.700 |ddv_scf|^2 =  6.606E-11

      iter #   5 total cpu time :   105.4 secs   av.it.:   9.8
      thresh= 8.128E-07 alpha_mix =  0.700 |ddv_scf|^2 =  1.112E-12

      iter #   6 total cpu time :   106.0 secs   av.it.:   9.5
      thresh= 1.055E-07 alpha_mix =  0.700 |ddv_scf|^2 =  1.046E-14

     End of self-consistent calculation

     Convergence has been achieved 


     Representation #  3 modes #   5  6

     Self-consistent Calculation

      iter #   1 total cpu time :   106.3 secs   av.it.:   5.1
      thresh= 1.000E-02 alpha_mix =  0.700 |ddv_scf|^2 =  1.470E-06

      iter #   2 total cpu time :   106.7 secs   av.it.:   9.9
      thresh= 1.212E-04 alpha_mix =  0.700 |ddv_scf|^2 =  7.932E-07

      iter #   3 total cpu time :   107.1 secs   av.it.:   9.4
      thresh= 8.906E-05 alpha_mix =  0.700 |ddv_scf|^2 =  4.832E-09

      iter #   4 total cpu time :   107.5 secs   av.it.:   9.1
      thresh= 6.951E-06 alpha_mix =  0.700 |ddv_scf|^2 =  2.479E-11

      iter #   5 total cpu time :   108.0 secs   av.it.:   9.4
      thresh= 4.978E-07 alpha_mix =  0.700 |ddv_scf|^2 =  3.981E-13

     End of self-consistent calculation

     Convergence has been achieved 

     Number of q in the star =    6
     List of q in the star:
          1  -0.500000000  -1.000000000   0.000000000
          2   0.000000000   1.000000000   0.500000000
          3   0.000000000  -1.000000000  -0.500000000
          4   0.500000000   1.000000000   0.000000000
          5  -1.000000000  -0.500000000   0.000000000
          6   0.000000000  -0.500000000  -1.000000000

     Diagonalizing the dynamical matrix

     q = (   -0.500000000  -1.000000000   0.000000000 ) 

 **************************************************************************
     freq (    1) =       7.307846 [THz] =     243.763494 [cm-1]
     freq (    2) =       7.307846 [THz] =     243.763494 [cm-1]
     freq (    3) =      10.502672 [THz] =     350.331434 [cm-1]
     freq (    4) =      10.502672 [THz] =     350.331434 [cm-1]
     freq (    5) =      13.166900 [THz] =     439.200521 [cm-1]
     freq (    6) =      13.166900 [THz] =     439.200521 [cm-1]
 **************************************************************************

     init_run     :      0.53s CPU      0.55s WALL (       7 calls)
     electrons    :      6.11s CPU      6.55s WALL (       7 calls)

     Called by init_run:
     wfcinit      :      0.00s CPU      0.00s WALL (       7 calls)
     potinit      :      0.02s CPU      0.02s WALL (       7 calls)

     Called by electrons:
     c_bands      :      6.11s CPU      6.53s WALL (       7 calls)
     v_of_rho     :      0.02s CPU      0.02s WALL (       8 calls)
     newd         :      0.03s CPU      0.03s WALL (       8 calls)

     Called by c_bands:
     init_us_2    :      0.71s CPU      0.77s WALL (   17588 calls)
     cegterg      :      5.13s CPU      5.49s WALL (     796 calls)

     Called by sum_band:

     Called by *egterg:
     h_psi        :     59.92s CPU     63.64s WALL (  156577 calls)
     s_psi        :      6.18s CPU      6.56s WALL (  317874 calls)
     g_psi        :      0.03s CPU      0.03s WALL (    9268 calls)
     cdiaghg      :      0.48s CPU      0.51s WALL (   10064 calls)

     Called by h_psi:
     h_psi:pot    :     59.73s CPU     63.44s WALL (  156577 calls)
     h_psi:calbec :      5.06s CPU      5.43s WALL (  156577 calls)
     vloc_psi     :     51.35s CPU     54.54s WALL (  156577 calls)
     add_vuspsi   :      3.10s CPU      3.25s WALL (  156577 calls)

     General routines
     calbec       :     10.70s CPU     11.48s WALL (  354246 calls)
     fft          :      0.65s CPU      0.75s WALL (    5239 calls)
     ffts         :      0.19s CPU      0.22s WALL (    2748 calls)
     fftw         :     58.83s CPU     62.44s WALL ( 1413074 calls)
     davcio       :      0.35s CPU      0.37s WALL (   79045 calls)

     Parallel routines
     fft_scatter  :     12.59s CPU     13.80s WALL ( 1421061 calls)

     PHONON       :  1m41.58s CPU     1m48.06s WALL

     INITIALIZATION: 
     phq_setup    :      0.07s CPU      0.08s WALL (       8 calls)
     phq_init     :      2.22s CPU      2.32s WALL (       8 calls)

     phq_init     :      2.22s CPU      2.32s WALL (       8 calls)
     set_drhoc    :      0.30s CPU      0.30s WALL (      24 calls)
     init_vloc    :      0.01s CPU      0.01s WALL (       8 calls)
     init_us_1    :      0.49s CPU      0.49s WALL (       8 calls)
     newd         :      0.03s CPU      0.03s WALL (       8 calls)
     dvanqq       :      0.25s CPU      0.25s WALL (       8 calls)
     drho         :      1.22s CPU      1.32s WALL (       8 calls)

     DYNAMICAL MATRIX:
     dynmat0      :      0.50s CPU      0.50s WALL (       8 calls)
     phqscf       :     89.77s CPU     95.51s WALL (       8 calls)
     dynmatrix    :      0.01s CPU      0.02s WALL (       8 calls)

     phqscf       :     89.77s CPU     95.51s WALL (       8 calls)
     solve_linter :     89.07s CPU     94.77s WALL (      32 calls)
     drhodv       :      0.50s CPU      0.52s WALL (      32 calls)

     dynmat0      :      0.50s CPU      0.50s WALL (       8 calls)
     dynmat_us    :      0.27s CPU      0.27s WALL (       8 calls)
     d2ionq       :      0.01s CPU      0.01s WALL (       8 calls)
     dynmatcc     :      0.22s CPU      0.22s WALL (       8 calls)

     dynmat_us    :      0.27s CPU      0.27s WALL (       8 calls)
     addusdynmat  :      0.00s CPU      0.00s WALL (       8 calls)

     phqscf       :     89.77s CPU     95.51s WALL (       8 calls)
     solve_linter :     89.07s CPU     94.77s WALL (      32 calls)

     solve_linter :     89.07s CPU     94.77s WALL (      32 calls)
     dvqpsi_us    :      1.95s CPU      2.09s WALL (    2508 calls)
     ortho        :      1.13s CPU      1.20s WALL (   15550 calls)
     cgsolve      :     69.75s CPU     74.29s WALL (   15550 calls)
     incdrhoscf   :      6.46s CPU      6.82s WALL (   15550 calls)
     addusddens   :      1.22s CPU      1.28s WALL (     228 calls)
     vpsifft      :      4.86s CPU      5.09s WALL (   12922 calls)
     dv_of_drho   :      0.36s CPU      0.40s WALL (     295 calls)
     mix_pot      :      0.09s CPU      0.10s WALL (     201 calls)
     psymdvscf    :      1.44s CPU      1.48s WALL (     196 calls)
     newdq        :      1.30s CPU      1.43s WALL (     201 calls)
     adddvscf     :      0.47s CPU      0.50s WALL (   13042 calls)
     drhodvus     :      0.01s CPU      0.01s WALL (      32 calls)

     dvqpsi_us    :      1.95s CPU      2.09s WALL (    2508 calls)
     dvqpsi_us_on :      0.83s CPU      0.88s WALL (    2508 calls)

     cgsolve      :     69.75s CPU     74.29s WALL (   15550 calls)
     ch_psi       :     67.77s CPU     72.00s WALL (  145717 calls)

     ch_psi       :     67.77s CPU     72.00s WALL (  145717 calls)
     h_psi        :     59.92s CPU     63.64s WALL (  156577 calls)
     last         :      9.13s CPU      9.75s WALL (  145717 calls)

     h_psi        :     59.92s CPU     63.64s WALL (  156577 calls)
     add_vuspsi   :      3.10s CPU      3.25s WALL (  156577 calls)

     incdrhoscf   :      6.46s CPU      6.82s WALL (   15550 calls)
     addusdbec    :      0.73s CPU      0.79s WALL (   17998 calls)

     drhodvus     :      0.01s CPU      0.01s WALL (      32 calls)

      General routines
     calbec       :     10.70s CPU     11.48s WALL (  354246 calls)
     fft          :      0.65s CPU      0.75s WALL (    5239 calls)
     ffts         :      0.19s CPU      0.22s WALL (    2748 calls)
     fftw         :     58.83s CPU     62.44s WALL ( 1413074 calls)
     davcio       :      0.35s CPU      0.37s WALL (   79045 calls)
     write_rec    :      0.22s CPU      0.25s WALL (     233 calls)


     PHONON       :  1m41.58s CPU     1m48.06s WALL


   This run was terminated on:   1:48:30   9Nov2017            

=------------------------------------------------------------------------------=
   JOB DONE.
=------------------------------------------------------------------------------=
