
     Program PWSCF v.6.1 (svn rev. 13369) starts on 10Nov2017 at 13:47:36 

     This program is part of the open-source Quantum ESPRESSO suite
     for quantum simulation of materials; please cite
         "P. Giannozzi et al., J. Phys.:Condens. Matter 21 395502 (2009);
          URL http://www.quantum-espresso.org", 
     in publications or presentations arising from this work. More details at
     http://www.quantum-espresso.org/quote

     Parallel version (MPI), running on     4 processors
     R & G space division:  proc/nbgrp/npool/nimage =       4
     Waiting for input...
     Reading input from standard input
     Message from routine read_cards :
     DEPRECATED: no units specified in ATOMIC_POSITIONS card
     Message from routine read_cards :
     ATOMIC_POSITIONS: units set to alat

     Current dimensions of program PWSCF are:
     Max number of different atomic species (ntypx) = 10
     Max number of k-points (npk) =  40000
     Max angular momentum in pseudopotentials (lmaxx) =  3

     Subspace diagonalization in iterative solution of the eigenvalue problem:
     a serial algorithm will be used


     Parallelization info
     --------------------
     sticks:   dense  smooth     PW     G-vecs:    dense   smooth      PW
     Min         238     118     37                 4798     1683     309
     Max         239     119     38                 4799     1684     312
     Sum         955     475    151                19195     6735    1243



     bravais-lattice index     =            2
     lattice parameter (alat)  =      10.3330  a.u.
     unit-cell volume          =     275.8159 (a.u.)^3
     number of atoms/cell      =            2
     number of atomic types    =            1
     number of electrons       =         8.00
     number of Kohn-Sham states=            4
     kinetic-energy cutoff     =      32.0000  Ry
     charge density cutoff     =     256.0000  Ry
     convergence threshold     =      1.0E-08
     mixing beta               =       0.7000
     number of iterations used =            8  plain     mixing
     Exchange-correlation      = SLA  PW   PBE  PBE ( 1  4  3  4 0 0)

     celldm(1)=  10.333000  celldm(2)=   0.000000  celldm(3)=   0.000000
     celldm(4)=   0.000000  celldm(5)=   0.000000  celldm(6)=   0.000000

     crystal axes: (cart. coord. in units of alat)
               a(1) = (  -0.500000   0.000000   0.500000 )  
               a(2) = (   0.000000   0.500000   0.500000 )  
               a(3) = (  -0.500000   0.500000   0.000000 )  

     reciprocal axes: (cart. coord. in units 2 pi/alat)
               b(1) = ( -1.000000 -1.000000  1.000000 )  
               b(2) = (  1.000000  1.000000  1.000000 )  
               b(3) = ( -1.000000  1.000000 -1.000000 )  


     PseudoPot. # 1 for Si read from file:
     /home/s1333534/quantum_espresso/qe-6.1/pseudo/si_pbe_v1.uspp.F.UPF.txt
     MD5 check sum: a056efeee980c13900f22a371efd63c1
     Pseudo is Ultrasoft + core correction, Zval =  4.0
     Generated by new atomic code, or converted to UPF format
     Using radial grid of  899 points,  6 beta functions with: 
                l(1) =   0
                l(2) =   0
                l(3) =   1
                l(4) =   1
                l(5) =   2
                l(6) =   2
     Q(r) pseudized with  8 coefficients,  rinner =    0.900   0.900   0.900
                                                       0.900   0.900

     atomic species   valence    mass     pseudopotential
        Si             4.00    28.08600     Si( 1.00)

     48 Sym. Ops., with inversion, found (24 have fractional translation)



   Cartesian axes

     site n.     atom                  positions (alat units)
         1           Si  tau(   1) = (   0.0000000   0.0000000   0.0000000  )
         2           Si  tau(   2) = (   0.2500000   0.2500000   0.2500000  )

     number of k points=    10
                       cart. coord. in units 2pi/alat
        k(    1) = (  -0.1250000   0.1250000   0.1250000), wk =   0.0625000
        k(    2) = (  -0.3750000   0.3750000  -0.1250000), wk =   0.1875000
        k(    3) = (   0.3750000  -0.3750000   0.6250000), wk =   0.1875000
        k(    4) = (   0.1250000  -0.1250000   0.3750000), wk =   0.1875000
        k(    5) = (  -0.1250000   0.6250000   0.1250000), wk =   0.1875000
        k(    6) = (   0.6250000  -0.1250000   0.8750000), wk =   0.3750000
        k(    7) = (   0.3750000   0.1250000   0.6250000), wk =   0.3750000
        k(    8) = (  -0.1250000  -0.8750000   0.1250000), wk =   0.1875000
        k(    9) = (  -0.3750000   0.3750000   0.3750000), wk =   0.0625000
        k(   10) = (   0.3750000  -0.3750000   1.1250000), wk =   0.1875000

     Dense  grid:    19195 G-vectors     FFT dimensions: (  40,  40,  40)

     Smooth grid:     6735 G-vectors     FFT dimensions: (  27,  27,  27)

     Estimated max dynamical RAM per process >       3.37MB

     Estimated total allocated dynamical RAM >      13.46MB

     Initial potential from superposition of free atoms

     starting charge    7.99866, renormalised to    8.00000
     Starting wfc are    8 randomized atomic wfcs

     total cpu time spent up to now is        0.3 secs

     per-process dynamical memory:    10.2 Mb

     Self-consistent Calculation

     iteration #  1     ecut=    32.00 Ry     beta=0.70
     Davidson diagonalization with overlap
     ethr =  1.00E-02,  avg # of iterations =  2.0

     Threshold (ethr) on eigenvalues was too large:
     Diagonalizing with lowered threshold

     Davidson diagonalization with overlap
     ethr =  6.76E-04,  avg # of iterations =  1.1

     total cpu time spent up to now is        0.4 secs

     total energy              =     -19.19111406 Ry
     Harris-Foulkes estimate   =     -19.20358657 Ry
     estimated scf accuracy    <       0.05376606 Ry

     iteration #  2     ecut=    32.00 Ry     beta=0.70
     Davidson diagonalization with overlap
     ethr =  6.72E-04,  avg # of iterations =  1.0

     total cpu time spent up to now is        0.5 secs

     total energy              =     -19.19284880 Ry
     Harris-Foulkes estimate   =     -19.19302087 Ry
     estimated scf accuracy    <       0.00245731 Ry

     iteration #  3     ecut=    32.00 Ry     beta=0.70
     Davidson diagonalization with overlap
     ethr =  3.07E-05,  avg # of iterations =  2.1

     total cpu time spent up to now is        0.6 secs

     total energy              =     -19.19316501 Ry
     Harris-Foulkes estimate   =     -19.19317709 Ry
     estimated scf accuracy    <       0.00004185 Ry

     iteration #  4     ecut=    32.00 Ry     beta=0.70
     Davidson diagonalization with overlap
     ethr =  5.23E-07,  avg # of iterations =  3.5

     total cpu time spent up to now is        0.7 secs

     total energy              =     -19.19320421 Ry
     Harris-Foulkes estimate   =     -19.19320494 Ry
     estimated scf accuracy    <       0.00000273 Ry

     iteration #  5     ecut=    32.00 Ry     beta=0.70
     Davidson diagonalization with overlap
     ethr =  3.41E-08,  avg # of iterations =  2.1

     total cpu time spent up to now is        0.8 secs

     End of self-consistent calculation

          k =-0.1250 0.1250 0.1250 (   857 PWs)   bands (ev):

    -5.6372   4.3888   5.6980   5.6980

          k =-0.3750 0.3750-0.1250 (   842 PWs)   bands (ev):

    -4.6110   1.3969   3.7127   5.2180

          k = 0.3750-0.3750 0.6250 (   840 PWs)   bands (ev):

    -3.4719  -0.6804   3.7334   4.4469

          k = 0.1250-0.1250 0.3750 (   856 PWs)   bands (ev):

    -5.1096   2.7729   4.6905   4.7544

          k =-0.1250 0.6250 0.1250 (   840 PWs)   bands (ev):

    -4.0786   1.0627   3.3643   3.8169

          k = 0.6250-0.1250 0.8750 (   842 PWs)   bands (ev):

    -2.4395  -0.8984   2.0106   3.0868

          k = 0.3750 0.1250 0.6250 (   841 PWs)   bands (ev):

    -3.6632   0.1900   2.7227   4.0914

          k =-0.1250-0.8750 0.1250 (   833 PWs)   bands (ev):

    -2.6071  -0.8012   2.6202   3.3502

          k =-0.3750 0.3750 0.3750 (   844 PWs)   bands (ev):

    -4.1782   0.1073   4.9112   4.9112

          k = 0.3750-0.3750 1.1250 (   841 PWs)   bands (ev):

    -2.9764  -0.5959   2.0688   4.1301

     highest occupied level (ev):     5.6980

!    total energy              =     -19.19320457 Ry
     Harris-Foulkes estimate   =     -19.19320457 Ry
     estimated scf accuracy    <          9.0E-09 Ry

     The total energy is the sum of the following terms:

     one-electron contribution =       4.95173677 Ry
     hartree contribution      =       1.13432543 Ry
     xc contribution           =      -8.59703147 Ry
     ewald contribution        =     -16.68223531 Ry

     convergence has been achieved in   5 iterations


     Computing stress (Cartesian axis) and pressure

          total   stress  (Ry/bohr**3)                   (kbar)     P=   -0.35
  -0.00000235   0.00000000   0.00000000         -0.35      0.00      0.00
   0.00000000  -0.00000235  -0.00000000          0.00     -0.35     -0.00
   0.00000000  -0.00000000  -0.00000235          0.00     -0.00     -0.35


     Writing output data file silicon.32.save

     init_run     :      0.21s CPU      0.22s WALL (       1 calls)
     electrons    :      0.52s CPU      0.56s WALL (       1 calls)
     stress       :      0.19s CPU      0.19s WALL (       1 calls)

     Called by init_run:
     wfcinit      :      0.02s CPU      0.02s WALL (       1 calls)
     potinit      :      0.02s CPU      0.02s WALL (       1 calls)

     Called by electrons:
     c_bands      :      0.16s CPU      0.17s WALL (       6 calls)
     sum_band     :      0.20s CPU      0.21s WALL (       6 calls)
     v_of_rho     :      0.07s CPU      0.07s WALL (       6 calls)
     newd         :      0.11s CPU      0.12s WALL (       6 calls)
     mix_rho      :      0.00s CPU      0.00s WALL (       6 calls)

     Called by c_bands:
     init_us_2    :      0.02s CPU      0.02s WALL (     140 calls)
     cegterg      :      0.13s CPU      0.14s WALL (      60 calls)

     Called by sum_band:
     sum_band:bec :      0.00s CPU      0.00s WALL (      60 calls)
     addusdens    :      0.14s CPU      0.15s WALL (       6 calls)

     Called by *egterg:
     h_psi        :      0.13s CPU      0.14s WALL (     188 calls)
     s_psi        :      0.01s CPU      0.00s WALL (     188 calls)
     g_psi        :      0.00s CPU      0.00s WALL (     118 calls)
     cdiaghg      :      0.01s CPU      0.01s WALL (     168 calls)

     Called by h_psi:
     h_psi:pot    :      0.13s CPU      0.14s WALL (     188 calls)
     h_psi:calbec :      0.01s CPU      0.01s WALL (     188 calls)
     vloc_psi     :      0.12s CPU      0.12s WALL (     188 calls)
     add_vuspsi   :      0.00s CPU      0.01s WALL (     188 calls)

     General routines
     calbec       :      0.01s CPU      0.01s WALL (     258 calls)
     fft          :      0.04s CPU      0.04s WALL (     110 calls)
     ffts         :      0.00s CPU      0.00s WALL (      12 calls)
     fftw         :      0.13s CPU      0.13s WALL (    1658 calls)
     interpolate  :      0.01s CPU      0.01s WALL (      12 calls)
     davcio       :      0.00s CPU      0.00s WALL (      10 calls)

     Parallel routines
     fft_scatter  :      0.03s CPU      0.04s WALL (    1780 calls)

     PWSCF        :     1.01s CPU         1.25s WALL


   This run was terminated on:  13:47:37  10Nov2017            

=------------------------------------------------------------------------------=
   JOB DONE.
=------------------------------------------------------------------------------=
