
     Program PWSCF v.6.1 (svn rev. 13369) starts on 10Nov2017 at  9:59:11 

     This program is part of the open-source Quantum ESPRESSO suite
     for quantum simulation of materials; please cite
         "P. Giannozzi et al., J. Phys.:Condens. Matter 21 395502 (2009);
          URL http://www.quantum-espresso.org", 
     in publications or presentations arising from this work. More details at
     http://www.quantum-espresso.org/quote

     Parallel version (MPI), running on     4 processors
     R & G space division:  proc/nbgrp/npool/nimage =       4
     Waiting for input...
     Reading input from standard input
     Message from routine read_cards :
     DEPRECATED: no units specified in ATOMIC_POSITIONS card
     Message from routine read_cards :
     ATOMIC_POSITIONS: units set to alat

     Current dimensions of program PWSCF are:
     Max number of different atomic species (ntypx) = 10
     Max number of k-points (npk) =  40000
     Max angular momentum in pseudopotentials (lmaxx) =  3

     Subspace diagonalization in iterative solution of the eigenvalue problem:
     a serial algorithm will be used


     Parallelization info
     --------------------
     sticks:   dense  smooth     PW     G-vecs:    dense   smooth      PW
     Min          66      66     22                  722      722     152
     Max          67      67     23                  724      724     153
     Sum         265     265     91                 2891     2891     609



     bravais-lattice index     =            2
     lattice parameter (alat)  =      10.4070  a.u.
     unit-cell volume          =     281.7842 (a.u.)^3
     number of atoms/cell      =            2
     number of atomic types    =            1
     number of electrons       =         8.00
     number of Kohn-Sham states=            4
     kinetic-energy cutoff     =      18.0000  Ry
     charge density cutoff     =      72.0000  Ry
     convergence threshold     =      1.0E-08
     mixing beta               =       0.7000
     number of iterations used =            8  plain     mixing
     Exchange-correlation      = SLA  PW   PBE  PBE ( 1  4  3  4 0 0)

     celldm(1)=  10.407000  celldm(2)=   0.000000  celldm(3)=   0.000000
     celldm(4)=   0.000000  celldm(5)=   0.000000  celldm(6)=   0.000000

     crystal axes: (cart. coord. in units of alat)
               a(1) = (  -0.500000   0.000000   0.500000 )  
               a(2) = (   0.000000   0.500000   0.500000 )  
               a(3) = (  -0.500000   0.500000   0.000000 )  

     reciprocal axes: (cart. coord. in units 2 pi/alat)
               b(1) = ( -1.000000 -1.000000  1.000000 )  
               b(2) = (  1.000000  1.000000  1.000000 )  
               b(3) = ( -1.000000  1.000000 -1.000000 )  


     PseudoPot. # 1 for Si read from file:
     /home/max/quantum_espresso/qe-6.1/pseudo/si_pbe_v1.uspp.F.UPF.txt
     MD5 check sum: a056efeee980c13900f22a371efd63c1
     Pseudo is Ultrasoft + core correction, Zval =  4.0
     Generated by new atomic code, or converted to UPF format
     Using radial grid of  899 points,  6 beta functions with: 
                l(1) =   0
                l(2) =   0
                l(3) =   1
                l(4) =   1
                l(5) =   2
                l(6) =   2
     Q(r) pseudized with  8 coefficients,  rinner =    0.900   0.900   0.900
                                                       0.900   0.900

     atomic species   valence    mass     pseudopotential
        Si             4.00    28.08600     Si( 1.00)

     48 Sym. Ops., with inversion, found (24 have fractional translation)



   Cartesian axes

     site n.     atom                  positions (alat units)
         1           Si  tau(   1) = (   0.0000000   0.0000000   0.0000000  )
         2           Si  tau(   2) = (   0.2500000   0.2500000   0.2500000  )

     number of k points=    10
                       cart. coord. in units 2pi/alat
        k(    1) = (  -0.1250000   0.1250000   0.1250000), wk =   0.0625000
        k(    2) = (  -0.3750000   0.3750000  -0.1250000), wk =   0.1875000
        k(    3) = (   0.3750000  -0.3750000   0.6250000), wk =   0.1875000
        k(    4) = (   0.1250000  -0.1250000   0.3750000), wk =   0.1875000
        k(    5) = (  -0.1250000   0.6250000   0.1250000), wk =   0.1875000
        k(    6) = (   0.6250000  -0.1250000   0.8750000), wk =   0.3750000
        k(    7) = (   0.3750000   0.1250000   0.6250000), wk =   0.3750000
        k(    8) = (  -0.1250000  -0.8750000   0.1250000), wk =   0.1875000
        k(    9) = (  -0.3750000   0.3750000   0.3750000), wk =   0.0625000
        k(   10) = (   0.3750000  -0.3750000   1.1250000), wk =   0.1875000

     Dense  grid:     2891 G-vectors     FFT dimensions: (  20,  20,  20)

     Estimated max dynamical RAM per process >       0.59MB

     Estimated total allocated dynamical RAM >       2.36MB

     Check: negative/imaginary core charge=   -0.000006    0.000000

     Initial potential from superposition of free atoms

     starting charge    7.99866, renormalised to    8.00000
     Starting wfc are    8 randomized atomic wfcs

     total cpu time spent up to now is        0.4 secs

     per-process dynamical memory:     6.7 Mb

     Self-consistent Calculation

     iteration #  1     ecut=    18.00 Ry     beta=0.70
     Davidson diagonalization with overlap
     ethr =  1.00E-02,  avg # of iterations =  2.0

     Threshold (ethr) on eigenvalues was too large:
     Diagonalizing with lowered threshold

     Davidson diagonalization with overlap
     ethr =  6.67E-04,  avg # of iterations =  1.0

     total cpu time spent up to now is        0.4 secs

     total energy              =     -19.19523397 Ry
     Harris-Foulkes estimate   =     -19.20682114 Ry
     estimated scf accuracy    <       0.05310069 Ry

     iteration #  2     ecut=    18.00 Ry     beta=0.70
     Davidson diagonalization with overlap
     ethr =  6.64E-04,  avg # of iterations =  1.0

     total cpu time spent up to now is        0.5 secs

     total energy              =     -19.19672632 Ry
     Harris-Foulkes estimate   =     -19.19692297 Ry
     estimated scf accuracy    <       0.00250787 Ry

     iteration #  3     ecut=    18.00 Ry     beta=0.70
     Davidson diagonalization with overlap
     ethr =  3.13E-05,  avg # of iterations =  2.0

     total cpu time spent up to now is        0.5 secs

     total energy              =     -19.19697961 Ry
     Harris-Foulkes estimate   =     -19.19699583 Ry
     estimated scf accuracy    <       0.00004382 Ry

     iteration #  4     ecut=    18.00 Ry     beta=0.70
     Davidson diagonalization with overlap
     ethr =  5.48E-07,  avg # of iterations =  2.6

     total cpu time spent up to now is        0.8 secs

     total energy              =     -19.19699974 Ry
     Harris-Foulkes estimate   =     -19.19700109 Ry
     estimated scf accuracy    <       0.00000353 Ry

     iteration #  5     ecut=    18.00 Ry     beta=0.70
     Davidson diagonalization with overlap
     ethr =  4.42E-08,  avg # of iterations =  2.1

     total cpu time spent up to now is        1.0 secs

     total energy              =     -19.19700037 Ry
     Harris-Foulkes estimate   =     -19.19700041 Ry
     estimated scf accuracy    <       0.00000010 Ry

     iteration #  6     ecut=    18.00 Ry     beta=0.70
     Davidson diagonalization with overlap
     ethr =  1.22E-09,  avg # of iterations =  2.6

     total cpu time spent up to now is        1.0 secs

     End of self-consistent calculation

          k =-0.1250 0.1250 0.1250 (   353 PWs)   bands (ev):

    -5.7081   4.1787   5.4902   5.4902

          k =-0.3750 0.3750-0.1250 (   362 PWs)   bands (ev):

    -4.7038   1.2225   3.5455   5.0139

          k = 0.3750-0.3750 0.6250 (   364 PWs)   bands (ev):

    -3.5967  -0.8040   3.5543   4.2614

          k = 0.1250-0.1250 0.3750 (   358 PWs)   bands (ev):

    -5.1910   2.5704   4.5059   4.5574

          k =-0.1250 0.6250 0.1250 (   357 PWs)   bands (ev):

    -4.1812   0.8656   3.2098   3.6489

          k = 0.6250-0.1250 0.8750 (   368 PWs)   bands (ev):

    -2.5832  -1.0639   1.8975   2.9447

          k = 0.3750 0.1250 0.6250 (   365 PWs)   bands (ev):

    -3.7778   0.0237   2.5789   3.9195

          k =-0.1250-0.8750 0.1250 (   364 PWs)   bands (ev):

    -2.7408  -0.9715   2.4889   3.1905

          k =-0.3750 0.3750 0.3750 (   359 PWs)   bands (ev):

    -4.2827  -0.0302   4.7137   4.7137

          k = 0.3750-0.3750 1.1250 (   369 PWs)   bands (ev):

    -3.1107  -0.7475   1.9454   3.9525

     highest occupied level (ev):     5.4902

!    total energy              =     -19.19700040 Ry
     Harris-Foulkes estimate   =     -19.19700040 Ry
     estimated scf accuracy    <          5.6E-10 Ry

     The total energy is the sum of the following terms:

     one-electron contribution =       4.78735819 Ry
     hartree contribution      =       1.16106605 Ry
     xc contribution           =      -8.58180996 Ry
     ewald contribution        =     -16.56361468 Ry

     convergence has been achieved in   6 iterations

     Writing output data file silicon.10.407.save

     init_run     :      0.18s CPU      0.25s WALL (       1 calls)
     electrons    :      0.37s CPU      0.68s WALL (       1 calls)

     Called by init_run:
     wfcinit      :      0.02s CPU      0.02s WALL (       1 calls)
     potinit      :      0.00s CPU      0.01s WALL (       1 calls)

     Called by electrons:
     c_bands      :      0.23s CPU      0.44s WALL (       7 calls)
     sum_band     :      0.07s CPU      0.10s WALL (       7 calls)
     v_of_rho     :      0.01s CPU      0.02s WALL (       7 calls)
     newd         :      0.05s CPU      0.08s WALL (       7 calls)
     mix_rho      :      0.01s CPU      0.03s WALL (       7 calls)

     Called by c_bands:
     init_us_2    :      0.01s CPU      0.01s WALL (     150 calls)
     cegterg      :      0.20s CPU      0.40s WALL (      70 calls)

     Called by sum_band:
     sum_band:bec :      0.00s CPU      0.00s WALL (      70 calls)
     addusdens    :      0.04s CPU      0.05s WALL (       7 calls)

     Called by *egterg:
     h_psi        :      0.14s CPU      0.27s WALL (     213 calls)
     s_psi        :      0.01s CPU      0.01s WALL (     213 calls)
     g_psi        :      0.00s CPU      0.00s WALL (     133 calls)
     cdiaghg      :      0.02s CPU      0.03s WALL (     193 calls)

     Called by h_psi:
     h_psi:pot    :      0.13s CPU      0.27s WALL (     213 calls)
     h_psi:calbec :      0.02s CPU      0.05s WALL (     213 calls)
     vloc_psi     :      0.11s CPU      0.21s WALL (     213 calls)
     add_vuspsi   :      0.01s CPU      0.01s WALL (     213 calls)

     General routines
     calbec       :      0.02s CPU      0.06s WALL (     283 calls)
     fft          :      0.04s CPU      0.08s WALL (      93 calls)
     fftw         :      0.11s CPU      0.22s WALL (    1936 calls)
     davcio       :      0.00s CPU      0.00s WALL (      10 calls)

     Parallel routines
     fft_scatter  :      0.12s CPU      0.27s WALL (    2029 calls)

     PWSCF        :     0.72s CPU         1.13s WALL


   This run was terminated on:   9:59:12  10Nov2017            

=------------------------------------------------------------------------------=
   JOB DONE.
=------------------------------------------------------------------------------=
